
                                 *****************
                                 * O   R   C   A *
                                 *****************

                                            #,                                       
                                            ###                                      
                                            ####                                     
                                            #####                                    
                                            ######                                   
                                           ########,                                 
                                     ,,################,,,,,                         
                               ,,#################################,,                 
                          ,,##########################################,,             
                       ,#########################################, ''#####,          
                    ,#############################################,,   '####,        
                  ,##################################################,,,,####,       
                ,###########''''           ''''###############################       
              ,#####''   ,,,,##########,,,,          '''####'''          '####       
            ,##' ,,,,###########################,,,                        '##       
           ' ,,###''''                  '''############,,,                           
         ,,##''                                '''############,,,,        ,,,,,,###''
      ,#''                                            '''#######################'''  
     '                                                          ''''####''''         
             ,#######,   #######,   ,#######,      ##                                
            ,#'     '#,  ##    ##  ,#'     '#,    #''#        ######   ,####,        
            ##       ##  ##   ,#'  ##            #'  '#       #        #'  '#        
            ##       ##  #######   ##           ,######,      #####,   #    #        
            '#,     ,#'  ##    ##  '#,     ,#' ,#      #,         ##   #,  ,#        
             '#######'   ##     ##  '#######'  #'      '#     #####' # '####'        



                  #######################################################
                  #                        -***-                        #
                  #          Department of theory and spectroscopy      #
                  #    Directorship and core code : Frank Neese         #
                  #        Max Planck Institute fuer Kohlenforschung    #
                  #                Kaiser Wilhelm Platz 1               #
                  #                 D-45470 Muelheim/Ruhr               #
                  #                      Germany                        #
                  #                                                     #
                  #                  All rights reserved                #
                  #                        -***-                        #
                  #######################################################


                         Program Version 5.0.3 -  RELEASE  -


 With contributions from (in alphabetic order):
   Daniel Aravena         : Magnetic Suceptibility
   Michael Atanasov       : Ab Initio Ligand Field Theory (pilot matlab implementation)
   Alexander A. Auer      : GIAO ZORA, VPT2 properties, NMR spectrum
   Ute Becker             : Parallelization
   Giovanni Bistoni       : ED, misc. LED, open-shell LED, HFLD
   Martin Brehm           : Molecular dynamics
   Dmytro Bykov           : SCF Hessian
   Vijay G. Chilkuri      : MRCI spin determinant printing, contributions to CSF-ICE
   Dipayan Datta          : RHF DLPNO-CCSD density
   Achintya Kumar Dutta   : EOM-CC, STEOM-CC
   Dmitry Ganyushin       : Spin-Orbit,Spin-Spin,Magnetic field MRCI
   Miquel Garcia          : C-PCM and meta-GGA Hessian, CC/C-PCM, Gaussian charge scheme
   Yang Guo               : DLPNO-NEVPT2, F12-NEVPT2, CIM, IAO-localization
   Andreas Hansen         : Spin unrestricted coupled pair/coupled cluster methods
   Benjamin Helmich-Paris : MC-RPA, TRAH-SCF, COSX integrals
   Lee Huntington         : MR-EOM, pCC
   Robert Izsak           : Overlap fitted RIJCOSX, COSX-SCS-MP3, EOM
   Marcus Kettner         : VPT2
   Christian Kollmar      : KDIIS, OOCD, Brueckner-CCSD(T), CCSD density, CASPT2, CASPT2-K
   Simone Kossmann        : Meta GGA functionals, TD-DFT gradient, OOMP2, MP2 Hessian
   Martin Krupicka        : Initial AUTO-CI
   Lucas Lang             : DCDCAS
   Marvin Lechner         : AUTO-CI (C++ implementation), FIC-MRCC
   Dagmar Lenk            : GEPOL surface, SMD
   Dimitrios Liakos       : Extrapolation schemes; Compound Job, initial MDCI parallelization
   Dimitrios Manganas     : Further ROCIS development; embedding schemes
   Dimitrios Pantazis     : SARC Basis sets
   Anastasios Papadopoulos: AUTO-CI, single reference methods and gradients
   Taras Petrenko         : DFT Hessian,TD-DFT gradient, ASA, ECA, R-Raman, ABS, FL, XAS/XES, NRVS
   Peter Pinski           : DLPNO-MP2, DLPNO-MP2 Gradient
   Christoph Reimann      : Effective Core Potentials
   Marius Retegan         : Local ZFS, SOC
   Christoph Riplinger    : Optimizer, TS searches, QM/MM, DLPNO-CCSD(T), (RO)-DLPNO pert. Triples
   Tobias Risthaus        : Range-separated hybrids, TD-DFT gradient, RPA, STAB
   Michael Roemelt        : Original ROCIS implementation
   Masaaki Saitow         : Open-shell DLPNO-CCSD energy and density
   Barbara Sandhoefer     : DKH picture change effects
   Avijit Sen             : IP-ROCIS
   Kantharuban Sivalingam : CASSCF convergence, NEVPT2, FIC-MRCI
   Bernardo de Souza      : ESD, SOC TD-DFT
   Georgi Stoychev        : AutoAux, RI-MP2 NMR, DLPNO-MP2 response
   Willem Van den Heuvel  : Paramagnetic NMR
   Boris Wezisla          : Elementary symmetry handling
   Frank Wennmohs         : Technical directorship


 We gratefully acknowledge several colleagues who have allowed us to
 interface, adapt or use parts of their codes:
   Stefan Grimme, W. Hujo, H. Kruse, P. Pracht,  : VdW corrections, initial TS optimization,
                  C. Bannwarth, S. Ehlert          DFT functionals, gCP, sTDA/sTD-DF
   Ed Valeev, F. Pavosevic, A. Kumar             : LibInt (2-el integral package), F12 methods
   Garnet Chan, S. Sharma, J. Yang, R. Olivares  : DMRG
   Ulf Ekstrom                                   : XCFun DFT Library
   Mihaly Kallay                                 : mrcc  (arbitrary order and MRCC methods)
   Jiri Pittner, Ondrej Demel                    : Mk-CCSD
   Frank Weinhold                                : gennbo (NPA and NBO analysis)
   Christopher J. Cramer and Donald G. Truhlar   : smd solvation model
   Lars Goerigk                                  : TD-DFT with DH, B97 family of functionals
   V. Asgeirsson, H. Jonsson                     : NEB implementation
   FAccTs GmbH                                   : IRC, NEB, NEB-TS, DLPNO-Multilevel, CI-OPT
                                                   MM, QMMM, 2- and 3-layer-ONIOM, Crystal-QMMM,
                                                   LR-CPCM, SF, NACMEs, symmetry and pop. for TD-DFT,
                                                   nearIR, NL-DFT gradient (VV10), updates on ESD,
                                                   ML-optimized integration grids
   S Lehtola, MJT Oliveira, MAL Marques          : LibXC Library
   Liviu Ungur et al                             : ANISO software


 Your calculation uses the libint2 library for the computation of 2-el integrals
 For citations please refer to: http://libint.valeyev.net

 Your ORCA version has been built with support for libXC version: 5.1.0
 For citations please refer to: https://tddft.org/programs/libxc/

 This ORCA versions uses:
   CBLAS   interface :  Fast vector & matrix operations
   LAPACKE interface :  Fast linear algebra routines
   SCALAPACK package :  Parallel linear algebra routines
   Shared memory     :  Shared parallel matrices
   BLAS/LAPACK       :  OpenBLAS 0.3.15  USE64BITINT DYNAMIC_ARCH NO_AFFINITY Zen SINGLE_THREADED
        Core in use  :  Zen
   Copyright (c) 2011-2014, The OpenBLAS Project




***************************************
The coordinates will be read from file: _11.xyz
***************************************


================================================================================

----- Orbital basis set information -----
Your calculation utilizes the basis: def2-SVP
   F. Weigend and R. Ahlrichs, Phys. Chem. Chem. Phys. 7, 3297 (2005).

----- AuxJ basis set information -----
Your calculation utilizes the auxiliary basis: def2/J
   F. Weigend, Phys. Chem. Chem. Phys. 8, 1057 (2006).

================================================================================
                                        WARNINGS
                       Please study these warnings very carefully!
================================================================================


INFO   : the flag for use of the SHARK integral package has been found!

================================================================================
                                       INPUT FILE
================================================================================
NAME = 11.inp
|  1> ! B3LYP DEF2-SVP TightSCF
|  2> %elprop
|  3> Polar 1
|  4> end
|  5> * xyzfile 0 1 _11.xyz
|  6> 
|  7>                          ****END OF INPUT****
================================================================================

                       ****************************
                       * Single Point Calculation *
                       ****************************

---------------------------------
CARTESIAN COORDINATES (ANGSTROEM)
---------------------------------
  C      5.070435    1.169395    1.618162
  C      4.210893    1.318313    0.324292
  C      4.257604    2.730304   -0.072114
  C      4.978029    0.412729   -0.653155
  C      6.401769    0.806980   -0.855988
  C      7.204483   -0.433213   -0.688839
  C      6.427485   -1.296632   -0.031414
  O      5.126639   -0.797544    0.109475
  C      6.992082   -2.513936    0.389127
  C      8.312354   -2.754189    0.091335
  C      9.089016   -1.803848   -0.618404
  C      8.547034   -0.617665   -1.025432
  C     10.367076   -2.132607   -0.863544
  C     11.002323   -3.263399   -0.512452
  C     10.129858   -4.191674    0.220422
  O     10.723089   -5.212902    0.529839
  O      8.933035   -3.850856    0.433102
  O      6.185326   -3.406895    1.087529
  O      3.026295    0.732874    0.579616
  C      1.949780    0.922952   -0.210376
  C      1.385183   -0.305635   -0.832010
  C      0.301987    0.239793   -1.791197
  C     -0.672955    1.124224   -1.123189
  C     -0.275675    1.599328    0.247572
  O      0.975301    1.431694    0.631954
  C     -1.211026    0.780195    1.185973
  O     -2.542270    1.009322    0.747703
  C     -3.644306    0.394489    1.061999
  O     -3.464805   -0.647022    1.910185
  C     -5.007974    0.587311    0.685014
  C     -5.976691   -0.170261    1.089927
  C     -7.368526   -0.036299    0.759821
  C     -7.808785    0.979169   -0.085835
  C     -9.141645    1.243046   -0.373967
  C    -10.018855    0.314860    0.325013
  C     -9.628519   -0.629428    1.114242
  C     -8.268076   -0.846449    1.364919
  O    -10.526219   -1.502417    1.779725
  C    -10.167784   -2.485775    2.596054
  O    -11.410816    0.518074    0.075023
  O     -9.685712    2.108582   -1.113829
  C    -10.234935    3.001762   -1.876792
  O     -0.925461    2.256023   -1.905887
  O     -0.322353   -0.789515   -2.457282
  O      2.250878   -1.003523   -1.690630
  H      4.364359    1.554306    2.406474
  H      5.885793    1.898232    1.599605
  H      5.305050    0.136210    1.828675
  H      4.134518    2.952327   -1.153291
  H      5.263768    3.133375    0.204902
  H      3.539675    3.284271    0.578374
  H      4.442082    0.248712   -1.568198
  H      6.567582    1.187025   -1.868822
  H      6.758313    1.603742   -0.165148
  H      9.131495    0.086992   -1.578529
  H     10.963393   -1.348757   -1.440212
  H     11.978792   -3.544091   -0.681243
  H      6.568347   -4.298822    1.421213
  H      2.154522    1.617863   -1.073904
  H      0.873606   -0.992173   -0.150737
  H      0.854175    0.883767   -2.545817
  H     -1.678147    0.575916   -1.080505
  H     -0.630953    2.658384    0.462635
  H     -1.059948    1.113804    2.216661
  H     -0.963887   -0.259993    1.075315
  H     -5.240552    1.416274   -0.015818
  H     -5.693133   -0.994273    1.771269
  H     -7.086967    1.625265   -0.572700
  H     -8.022689   -1.658085    2.019442
  H     -9.483266   -2.184443    3.425058
  H    -11.072077   -2.943603    3.093375
  H     -9.665398   -3.372964    2.093557
  H    -12.052931   -0.118305    0.592251
  H     -9.613679    3.226027   -2.800418
  H    -10.437524    4.032783   -1.441587
  H    -11.260972    2.671293   -2.315962
  H     -1.388728    2.926528   -1.310590
  H     -0.672243   -0.567632   -3.349287
  H      1.693060   -1.539689   -2.290643

----------------------------
CARTESIAN COORDINATES (A.U.)
----------------------------
  NO LB      ZA    FRAG     MASS         X           Y           Z
   0 C     6.0000    0    12.011    9.581734    2.209836    3.057883
   1 C     6.0000    0    12.011    7.957435    2.491251    0.612823
   2 C     6.0000    0    12.011    8.045706    5.159527   -0.136276
   3 C     6.0000    0    12.011    9.407111    0.779945   -1.234284
   4 C     6.0000    0    12.011   12.097590    1.524971   -1.617583
   5 C     6.0000    0    12.011   13.614500   -0.818654   -1.301717
   6 C     6.0000    0    12.011   12.146186   -2.450279   -0.059364
   7 O     8.0000    0    15.999    9.687944   -1.507140    0.206878
   8 C     6.0000    0    12.011   13.213120   -4.750651    0.735343
   9 C     6.0000    0    12.011   15.708073   -5.204663    0.172598
  10 C     6.0000    0    12.011   17.175751   -3.408779   -1.168614
  11 C     6.0000    0    12.011   16.151554   -1.167218   -1.937786
  12 C     6.0000    0    12.011   19.590934   -4.030043   -1.631862
  13 C     6.0000    0    12.011   20.791377   -6.166930   -0.968394
  14 C     6.0000    0    12.011   19.142657   -7.921116    0.416537
  15 O     8.0000    0    15.999   20.263702   -9.850957    1.001251
  16 O     8.0000    0    15.999   16.880990   -7.277063    0.818444
  17 O     8.0000    0    15.999   11.688572   -6.438099    2.055132
  18 O     8.0000    0    15.999    5.718869    1.384931    1.095316
  19 C     6.0000    0    12.011    3.684550    1.744127   -0.397553
  20 C     6.0000    0    12.011    2.617617   -0.577566   -1.572271
  21 C     6.0000    0    12.011    0.570673    0.453143   -3.384872
  22 C     6.0000    0    12.011   -1.271701    2.124475   -2.122520
  23 C     6.0000    0    12.011   -0.520950    3.022292    0.467843
  24 O     8.0000    0    15.999    1.843052    2.705510    1.194220
  25 C     6.0000    0    12.011   -2.288507    1.474355    2.241164
  26 O     8.0000    0    15.999   -4.804194    1.907342    1.412954
  27 C     6.0000    0    12.011   -6.886740    0.745476    2.006887
  28 O     8.0000    0    15.999   -6.547533   -1.222694    3.609727
  29 C     6.0000    0    12.011   -9.463699    1.109857    1.294489
  30 C     6.0000    0    12.011  -11.294309   -0.321747    2.059664
  31 C     6.0000    0    12.011  -13.924496   -0.068595    1.435854
  32 C     6.0000    0    12.011  -14.756465    1.850361   -0.162205
  33 C     6.0000    0    12.011  -17.275205    2.349017   -0.706695
  34 C     6.0000    0    12.011  -18.932892    0.594999    0.614186
  35 C     6.0000    0    12.011  -18.195264   -1.189447    2.105612
  36 C     6.0000    0    12.011  -15.624399   -1.599557    2.579323
  37 O     8.0000    0    15.999  -19.891671   -2.839157    3.363193
  38 C     6.0000    0    12.011  -19.214327   -4.697434    4.905831
  39 O     8.0000    0    15.999  -21.563317    0.979018    0.141773
  40 O     8.0000    0    15.999  -18.303343    3.984643   -2.104832
  41 C     6.0000    0    12.011  -19.341224    5.672508   -3.546623
  42 O     8.0000    0    15.999   -1.748868    4.263266   -3.601604
  43 O     8.0000    0    15.999   -0.609159   -1.491967   -4.643590
  44 O     8.0000    0    15.999    4.253543   -1.896384   -3.194828
  45 H     1.0000    0     1.008    8.247443    2.937213    4.547577
  46 H     1.0000    0     1.008   11.122537    3.587139    3.022815
  47 H     1.0000    0     1.008   10.025092    0.257400    3.455695
  48 H     1.0000    0     1.008    7.813107    5.579089   -2.179404
  49 H     1.0000    0     1.008    9.947080    5.921221    0.387209
  50 H     1.0000    0     1.008    6.689016    6.206373    1.092968
  51 H     1.0000    0     1.008    8.394318    0.469998   -2.963465
  52 H     1.0000    0     1.008   12.410931    2.243152   -3.531562
  53 H     1.0000    0     1.008   12.771361    3.030633   -0.312084
  54 H     1.0000    0     1.008   17.256025    0.164391   -2.982988
  55 H     1.0000    0     1.008   20.717810   -2.548781   -2.721606
  56 H     1.0000    0     1.008   22.636636   -6.697361   -1.287363
  57 H     1.0000    0     1.008   12.412377   -8.123596    2.685703
  58 H     1.0000    0     1.008    4.071457    3.057318   -2.029384
  59 H     1.0000    0     1.008    1.650876   -1.874935   -0.284852
  60 H     1.0000    0     1.008    1.614157    1.670078   -4.810897
  61 H     1.0000    0     1.008   -3.171238    1.088324   -2.041859
  62 H     1.0000    0     1.008   -1.192328    5.023618    0.874253
  63 H     1.0000    0     1.008   -2.003011    2.104785    4.188882
  64 H     1.0000    0     1.008   -1.821482   -0.491316    2.032051
  65 H     1.0000    0     1.008   -9.903208    2.676370   -0.029892
  66 H     1.0000    0     1.008  -10.758462   -1.878904    3.347213
  67 H     1.0000    0     1.008  -13.392427    3.071306   -1.082246
  68 H     1.0000    0     1.008  -15.160685   -3.133327    3.816192
  69 H     1.0000    0     1.008  -17.920776   -4.127999    6.472422
  70 H     1.0000    0     1.008  -20.923193   -5.562604    5.845632
  71 H     1.0000    0     1.008  -18.264955   -6.373978    3.956249
  72 H     1.0000    0     1.008  -22.776739   -0.223564    1.119192
  73 H     1.0000    0     1.008  -18.167220    6.096308   -5.292023
  74 H     1.0000    0     1.008  -19.724062    7.620855   -2.724205
  75 H     1.0000    0     1.008  -21.280153    5.048012   -4.376534
  76 H     1.0000    0     1.008   -2.624316    5.530336   -2.476656
  77 H     1.0000    0     1.008   -1.270355   -1.072669   -6.329235
  78 H     1.0000    0     1.008    3.199420   -2.909591   -4.328688

--------------------------------
INTERNAL COORDINATES (ANGSTROEM)
--------------------------------
 C      0   0   0     0.000000000000     0.00000000     0.00000000
 C      1   0   0     1.560477041609     0.00000000     0.00000000
 C      2   1   0     1.467323488001   107.35536290     0.00000000
 C      2   1   3     1.537524849022   101.30774028   117.87796240
 C      4   2   1     1.491177609975   114.02459508   301.48156073
 C      5   4   2     1.486730382835   106.24004818   131.00525510
 C      6   5   4     1.334700675129   106.30146712   341.20344839
 O      7   6   5     1.400406675856   111.08613676     7.18546876
 C      7   6   5     1.406219589362   118.26599629   186.69646742
 C      9   7   6     1.374598026063   118.17358346   359.50472809
 C     10   9   7     1.417773369282   121.16120009     0.08463341
 C     11  10   9     1.366179486962   120.91828027     0.13821213
 C     11  10   9     1.342241954076   116.67038454   180.16387045
 C     13  11  10     1.343687050893   127.48564806   359.94126272
 C     14  13  11     1.469691788004   112.40694702   359.92729215
 O     15  14  13     1.220888417192   111.48444658   179.93790808
 O     15  14  13     1.262448012733   118.44225168     0.09831414
 O      9   7   6     1.391400867048   118.22051077   179.29020446
 O      2   1   3     1.345808897764   106.61987270   230.38281274
 C     19   2   1     1.348740728003   122.01388520   165.64281600
 C     20  19   2     1.488161489535   115.53978991   120.23715489
 C     21  20  19     1.546235744823   103.51427940   186.62163407
 C     22  21  20     1.476131696424   113.16041412   305.96541052
 C     23  22  21     1.504174500627   115.29037881    13.89906014
 O     24  23  22     1.319390629213   118.41047634    13.35085918
 C     24  23  22     1.557708830845   102.96182449   252.95209737
 O     26  24  23     1.420137444956   106.98507028   305.66365137
 C     27  26  24     1.300494113328   130.05289564   167.62503530
 O     28  27  26     1.355132931752   113.72665415   357.84830310
 C     28  27  26     1.427896504699   132.97139662   178.47479035
 C     30  28  27     1.294713288277   123.57104011   178.12068211
 C     31  30  28     1.436704721195   126.75723458   179.70801434
 C     32  31  30     1.392888120576   120.90918729     0.58489359
 C     33  32  31     1.388944527385   124.59450013   185.19615582
 C     34  33  32     1.455884499229   110.94542564   359.92880213
 C     35  34  33     1.291094277844   125.28258734     0.23805540
 C     32  31  30     1.353394552451   119.03611656   185.76273293
 O     36  35  34     1.418041856720   123.07569756   179.53250063
 C     38  36  35     1.327351363291   125.01257231   179.87322921
 O     35  34  33     1.428756926638   114.35110428   180.25470748
 O     34  33  32     1.261965628228   131.73162462   180.45336369
 C     41  34  33     1.296737812936   179.51900728     0.51242215
 O     23  22  21     1.399051255545   110.53215979   136.14833453
 O     22  21  20     1.375843240231   110.75167912   179.83183929
 O     21  20  19     1.404885688577   115.57066150   298.62722130
 H      1   2   3     1.126115271649   101.67994409    78.88283482
 H      1   2   3     1.093780783787   109.44797999   328.67864465
 H      1   2   3     1.080199595269   111.86994796   195.14252621
 H      3   2   1     1.110580065215   116.86260713   152.10436175
 H      3   2   1     1.118735934076   107.96530998    33.36100939
 H      3   2   1     1.115991095069   107.44102163   280.82267055
 H      4   2   1     1.073053798720   112.51593506   170.15236409
 H      5   4   2     1.094422616977   111.24445493   248.50918335
 H      5   4   2     1.113199539247   114.24396837     8.59650618
 H     12  11  10     1.069603870402   120.61655487   181.29792483
 H     13  11  10     1.141297844216   114.93347486   179.74561056
 H     14  13  11     1.029936943947   129.40162523   180.25339012
 H     18   9   7     1.026442337214   120.29686954   180.87826458
 H     20  19   2     1.127165112692   112.99383031   359.35777535
 H     21  20  19     1.094156457232   115.80489701    70.76419443
 H     22  21  20     1.135370179466   105.76383722    62.04690598
 H     23  22  21     1.145807376300   108.03265754   249.86778355
 H     24  23  22     1.137573805249   112.57263683   145.20873363
 H     26  24  23     1.093817754614   108.92527321   184.67358012
 H     26  24  23     1.074855317533   107.98770495    63.88246701
 H     30  28  27     1.110152094840   117.87753168   359.87219881
 H     31  30  28     1.106177127079   115.89401586     0.61260265
 H     33  32  31     1.084204221798   119.77838255     5.43470741
 H     37  32  31     1.071152712639   125.06517451   354.09296254
 H     39  38  36     1.116518472111   114.97664785    52.87635793
 H     39  38  36     1.129017486346   110.79557470   172.84777842
 H     39  38  36     1.136661449037   115.19580809   289.79766368
 H     40  35  34     1.041544386404   115.26674283   181.91110019
 H     42  41  34     1.135490552861   112.51337209    34.15831470
 H     42  41  34     1.137299431718   118.34118224   273.75736786
 H     42  41  34     1.163972497197   113.56485992   151.16739316
 H     43  23  22     1.009243175118   106.87668790   194.81936020
 H     44  22  21     0.983528341134   115.57771831   208.90075306
 H     45  21  20     0.979106991523   107.18737401   202.41178165

---------------------------
INTERNAL COORDINATES (A.U.)
---------------------------
 C      0   0   0     0.000000000000     0.00000000     0.00000000
 C      1   0   0     2.948874246912     0.00000000     0.00000000
 C      2   1   0     2.772839542191   107.35536290     0.00000000
 C      2   1   3     2.905500888751   101.30774028   117.87796240
 C      4   2   1     2.817917299888   114.02459508   301.48156073
 C      5   4   2     2.809513258539   106.24004818   131.00525510
 C      6   5   4     2.522218746754   106.30146712   341.20344839
 O      7   6   5     2.646385093482   111.08613676     7.18546876
 C      7   6   5     2.657369908050   118.26599629   186.69646742
 C      9   7   6     2.597613813488   118.17358346   359.50472809
 C     10   9   7     2.679203387910   121.16120009     0.08463341
 C     11  10   9     2.581705080140   120.91828027     0.13821213
 C     11  10   9     2.536469698662   116.67038454   180.16387045
 C     13  11  10     2.539200535884   127.48564806   359.94126272
 C     14  13  11     2.777314980600   112.40694702   359.92729215
 O     15  14  13     2.307144748570   111.48444658   179.93790808
 O     15  14  13     2.385681002378   118.44225168     0.09831414
 O      9   7   6     2.629366581221   118.22051077   179.29020446
 O      2   1   3     2.543210245369   106.61987270   230.38281274
 C     19   2   1     2.548750601590   122.01388520   165.64281600
 C     20  19   2     2.812217658269   115.53978991   120.23715489
 C     21  20  19     2.921962096196   103.51427940   186.62163407
 C     22  21  20     2.789484643843   113.16041412   305.96541052
 C     23  22  21     2.842477863813   115.29037881    13.89906014
 O     24  23  22     2.493286952875   118.41047634    13.35085918
 C     24  23  22     2.943643086687   102.96182449   252.95209737
 O     26  24  23     2.683670843493   106.98507028   305.66365137
 C     27  26  24     2.457577712967   130.05289564   167.62503530
 O     28  27  26     2.560830116069   113.72665415   357.84830310
 C     28  27  26     2.698333341465   132.97139662   178.47479035
 C     30  28  27     2.446653536793   123.57104011   178.12068211
 C     31  30  28     2.714978458371   126.75723458   179.70801434
 C     32  31  30     2.632177083080   120.90918729     0.58489359
 C     33  32  31     2.624724771967   124.59450013   185.19615582
 C     34  33  32     2.751222986164   110.94542564   359.92880213
 C     35  34  33     2.439814598198   125.28258734     0.23805540
 C     32  31  30     2.557545055273   119.03611656   185.76273293
 O     36  35  34     2.679710755638   123.07569756   179.53250063
 C     38  36  35     2.508330560107   125.01257231   179.87322921
 O     35  34  33     2.699959303289   114.35110428   180.25470748
 O     34  33  32     2.384769427773   131.73162462   180.45336369
 C     41  34  33     2.450479333949   179.51900728     0.51242215
 O     23  22  21     2.643823720298   110.53215979   136.14833453
 O     22  21  20     2.599966927243   110.75167912   179.83183929
 O     21  20  19     2.654849200876   115.57066150   298.62722130
 H      1   2   3     2.128049458643   101.67994409    78.88283482
 H      1   2   3     2.066946131903   109.44797999   328.67864465
 H      1   2   3     2.041281405031   111.86994796   195.14252621
 H      3   2   1     2.098692173050   116.86260713   152.10436175
 H      3   2   1     2.114104531580   107.96530998    33.36100939
 H      3   2   1     2.108917537576   107.44102163   280.82267055
 H      4   2   1     2.027777806544   112.51593506   170.15236409
 H      5   4   2     2.068159020855   111.24445493   248.50918335
 H      5   4   2     2.103642261584   114.24396837     8.59650618
 H     12  11  10     2.021258386842   120.61655487   181.29792483
 H     13  11  10     2.156740362804   114.93347486   179.74561056
 H     14  13  11     1.946298759267   129.40162523   180.25339012
 H     18   9   7     1.939694909597   120.29686954   180.87826458
 H     20  19   2     2.130033370698   112.99383031   359.35777535
 H     21  20  19     2.067656051830   115.80489701    70.76419443
 H     22  21  20     2.145538699811   105.76383722    62.04690598
 H     23  22  21     2.165262143434   108.03265754   249.86778355
 H     24  23  22     2.149702949044   112.57263683   145.20873363
 H     26  24  23     2.067015996641   108.92527321   184.67358012
 H     26  24  23     2.031182183726   107.98770495    63.88246701
 H     30  28  27     2.097883426246   117.87753168   359.87219881
 H     31  30  28     2.090371825786   115.89401586     0.61260265
 H     33  32  31     2.048849052440   119.77838255     5.43470741
 H     37  32  31     2.024185274495   125.06517451   354.09296254
 H     39  38  36     2.109914135753   114.97664785    52.87635793
 H     39  38  36     2.133533849601   110.79557470   172.84777842
 H     39  38  36     2.147978845665   115.19580809   289.79766368
 H     40  35  34     1.968233646627   115.26674283   181.91110019
 H     42  41  34     2.145766172562   112.51337209    34.15831470
 H     42  41  34     2.149184458212   118.34118224   273.75736786
 H     42  41  34     2.199589247118   113.56485992   151.16739316
 H     43  23  22     1.907193203503   106.87668790   194.81936020
 H     44  22  21     1.858599209693   115.57771831   208.90075306
 H     45  21  20     1.850244069786   107.18737401   202.41178165

---------------------
BASIS SET INFORMATION
---------------------
There are 3 groups of distinct atoms

 Group   1 Type C   : 7s4p1d contracted to 3s2p1d pattern {511/31/1}
 Group   2 Type O   : 7s4p1d contracted to 3s2p1d pattern {511/31/1}
 Group   3 Type H   : 4s1p contracted to 2s1p pattern {31/1}

Atom   0C    basis set group =>   1
Atom   1C    basis set group =>   1
Atom   2C    basis set group =>   1
Atom   3C    basis set group =>   1
Atom   4C    basis set group =>   1
Atom   5C    basis set group =>   1
Atom   6C    basis set group =>   1
Atom   7O    basis set group =>   2
Atom   8C    basis set group =>   1
Atom   9C    basis set group =>   1
Atom  10C    basis set group =>   1
Atom  11C    basis set group =>   1
Atom  12C    basis set group =>   1
Atom  13C    basis set group =>   1
Atom  14C    basis set group =>   1
Atom  15O    basis set group =>   2
Atom  16O    basis set group =>   2
Atom  17O    basis set group =>   2
Atom  18O    basis set group =>   2
Atom  19C    basis set group =>   1
Atom  20C    basis set group =>   1
Atom  21C    basis set group =>   1
Atom  22C    basis set group =>   1
Atom  23C    basis set group =>   1
Atom  24O    basis set group =>   2
Atom  25C    basis set group =>   1
Atom  26O    basis set group =>   2
Atom  27C    basis set group =>   1
Atom  28O    basis set group =>   2
Atom  29C    basis set group =>   1
Atom  30C    basis set group =>   1
Atom  31C    basis set group =>   1
Atom  32C    basis set group =>   1
Atom  33C    basis set group =>   1
Atom  34C    basis set group =>   1
Atom  35C    basis set group =>   1
Atom  36C    basis set group =>   1
Atom  37O    basis set group =>   2
Atom  38C    basis set group =>   1
Atom  39O    basis set group =>   2
Atom  40O    basis set group =>   2
Atom  41C    basis set group =>   1
Atom  42O    basis set group =>   2
Atom  43O    basis set group =>   2
Atom  44O    basis set group =>   2
Atom  45H    basis set group =>   3
Atom  46H    basis set group =>   3
Atom  47H    basis set group =>   3
Atom  48H    basis set group =>   3
Atom  49H    basis set group =>   3
Atom  50H    basis set group =>   3
Atom  51H    basis set group =>   3
Atom  52H    basis set group =>   3
Atom  53H    basis set group =>   3
Atom  54H    basis set group =>   3
Atom  55H    basis set group =>   3
Atom  56H    basis set group =>   3
Atom  57H    basis set group =>   3
Atom  58H    basis set group =>   3
Atom  59H    basis set group =>   3
Atom  60H    basis set group =>   3
Atom  61H    basis set group =>   3
Atom  62H    basis set group =>   3
Atom  63H    basis set group =>   3
Atom  64H    basis set group =>   3
Atom  65H    basis set group =>   3
Atom  66H    basis set group =>   3
Atom  67H    basis set group =>   3
Atom  68H    basis set group =>   3
Atom  69H    basis set group =>   3
Atom  70H    basis set group =>   3
Atom  71H    basis set group =>   3
Atom  72H    basis set group =>   3
Atom  73H    basis set group =>   3
Atom  74H    basis set group =>   3
Atom  75H    basis set group =>   3
Atom  76H    basis set group =>   3
Atom  77H    basis set group =>   3
Atom  78H    basis set group =>   3
---------------------------------
AUXILIARY/J BASIS SET INFORMATION
---------------------------------
There are 3 groups of distinct atoms

 Group   1 Type C   : 12s5p4d2f1g contracted to 6s4p3d1f1g pattern {711111/2111/211/2/1}
 Group   2 Type O   : 12s5p4d2f1g contracted to 6s4p3d1f1g pattern {711111/2111/211/2/1}
 Group   3 Type H   : 5s2p1d contracted to 3s1p1d pattern {311/2/1}

Atom   0C    basis set group =>   1
Atom   1C    basis set group =>   1
Atom   2C    basis set group =>   1
Atom   3C    basis set group =>   1
Atom   4C    basis set group =>   1
Atom   5C    basis set group =>   1
Atom   6C    basis set group =>   1
Atom   7O    basis set group =>   2
Atom   8C    basis set group =>   1
Atom   9C    basis set group =>   1
Atom  10C    basis set group =>   1
Atom  11C    basis set group =>   1
Atom  12C    basis set group =>   1
Atom  13C    basis set group =>   1
Atom  14C    basis set group =>   1
Atom  15O    basis set group =>   2
Atom  16O    basis set group =>   2
Atom  17O    basis set group =>   2
Atom  18O    basis set group =>   2
Atom  19C    basis set group =>   1
Atom  20C    basis set group =>   1
Atom  21C    basis set group =>   1
Atom  22C    basis set group =>   1
Atom  23C    basis set group =>   1
Atom  24O    basis set group =>   2
Atom  25C    basis set group =>   1
Atom  26O    basis set group =>   2
Atom  27C    basis set group =>   1
Atom  28O    basis set group =>   2
Atom  29C    basis set group =>   1
Atom  30C    basis set group =>   1
Atom  31C    basis set group =>   1
Atom  32C    basis set group =>   1
Atom  33C    basis set group =>   1
Atom  34C    basis set group =>   1
Atom  35C    basis set group =>   1
Atom  36C    basis set group =>   1
Atom  37O    basis set group =>   2
Atom  38C    basis set group =>   1
Atom  39O    basis set group =>   2
Atom  40O    basis set group =>   2
Atom  41C    basis set group =>   1
Atom  42O    basis set group =>   2
Atom  43O    basis set group =>   2
Atom  44O    basis set group =>   2
Atom  45H    basis set group =>   3
Atom  46H    basis set group =>   3
Atom  47H    basis set group =>   3
Atom  48H    basis set group =>   3
Atom  49H    basis set group =>   3
Atom  50H    basis set group =>   3
Atom  51H    basis set group =>   3
Atom  52H    basis set group =>   3
Atom  53H    basis set group =>   3
Atom  54H    basis set group =>   3
Atom  55H    basis set group =>   3
Atom  56H    basis set group =>   3
Atom  57H    basis set group =>   3
Atom  58H    basis set group =>   3
Atom  59H    basis set group =>   3
Atom  60H    basis set group =>   3
Atom  61H    basis set group =>   3
Atom  62H    basis set group =>   3
Atom  63H    basis set group =>   3
Atom  64H    basis set group =>   3
Atom  65H    basis set group =>   3
Atom  66H    basis set group =>   3
Atom  67H    basis set group =>   3
Atom  68H    basis set group =>   3
Atom  69H    basis set group =>   3
Atom  70H    basis set group =>   3
Atom  71H    basis set group =>   3
Atom  72H    basis set group =>   3
Atom  73H    basis set group =>   3
Atom  74H    basis set group =>   3
Atom  75H    basis set group =>   3
Atom  76H    basis set group =>   3
Atom  77H    basis set group =>   3
Atom  78H    basis set group =>   3

Checking for AutoStart:
The File: 11.gbw exists
Trying to determine its content:
     ... Fine, the file contains calculation information
     ... Fine, the calculation information was read
     ... Fine, the file contains a basis set
     ... Fine, the basis set was read
     ... Fine, the file contains a geometry
     ... Fine, the geometry was read
     ... Fine, the file contains a set of orbitals
     ... Fine, the orbitals can be read
     => possible old guess file was deleted
     => GBW file was renamed to GES file
     => GES file is set as startup file
     => Guess is set to MORead
     ... now leaving AutoStart

------------------------------------------------------------------------------
                           ORCA GTO INTEGRAL CALCULATION
                           -- RI-GTO INTEGRALS CHOSEN --
------------------------------------------------------------------------------
------------------------------------------------------------------------------
                   ___                                                        
                  /   \      - P O W E R E D   B Y -                         
                 /     \                                                     
                 |  |  |   _    _      __       _____    __    __             
                 |  |  |  | |  | |    /  \     |  _  \  |  |  /  |          
                  \  \/   | |  | |   /    \    | | | |  |  | /  /          
                 / \  \   | |__| |  /  /\  \   | |_| |  |  |/  /          
                |  |  |   |  __  | /  /__\  \  |    /   |      \           
                |  |  |   | |  | | |   __   |  |    \   |  |\   \          
                \     /   | |  | | |  |  |  |  | |\  \  |  | \   \       
                 \___/    |_|  |_| |__|  |__|  |_| \__\ |__|  \__/        
                                                                              
                      - O R C A' S   B I G   F R I E N D -                    
                                      &                                       
                       - I N T E G R A L  F E E D E R -                       
                                                                              
 v1 FN, 2020, v2 2021                                                         
------------------------------------------------------------------------------


Reading SHARK input file 11.SHARKINP.tmp ... ok
----------------------
SHARK INTEGRAL PACKAGE
----------------------

Number of atoms                             ...     79
Number of basis functions                   ...    800
Number of shells                            ...    372
Maximum angular momentum                    ...      2
Integral batch strategy                     ... SHARK/LIBINT Hybrid
RI-J (if used) integral strategy            ... SPLIT-RIJ (Revised 2003 algorithm where possible)
Printlevel                                  ...      1
Contraction scheme used                     ... SEGMENTED contraction
Coulomb Range Separation                    ... NOT USED
Exchange Range Separation                   ... NOT USED
Finite Nucleus Model                        ... NOT USED
Auxiliary Coulomb fitting basis             ... AVAILABLE
   # of basis functions in Aux-J            ...   2579
   # of shells in Aux-J                     ...    845
   Maximum angular momentum in Aux-J        ...      4
Auxiliary J/K fitting basis                 ... NOT available
Auxiliary Correlation fitting basis         ... NOT available
Auxiliary 'external' fitting basis          ... NOT available
Integral threshold                          ...     2.500000e-11
Primitive cut-off                           ...     2.500000e-12
Primitive pair pre-selection threshold      ...     2.500000e-12

Calculating pre-screening integrals         ... done (  0.2 sec) Dimension = 372
Organizing shell pair data                  ... done (  0.3 sec)
Shell pair information
Total number of shell pairs                 ...     69378
Shell pairs after pre-screening             ...     28240
Total number of primitive shell pairs       ...    253092
Primitive shell pairs kept                  ...     63742
          la=0 lb=0:   8838 shell pairs
          la=1 lb=0:  10596 shell pairs
          la=1 lb=1:   3252 shell pairs
          la=2 lb=0:   3282 shell pairs
          la=2 lb=1:   1962 shell pairs
          la=2 lb=2:    310 shell pairs

Calculating one electron integrals          ... done (  0.3 sec)
Calculating RI/J V-Matrix + Cholesky decomp.... done (  0.6 sec)
Calculating Nuclear repulsion               ... done (  0.0 sec) ENN=   5218.650351635358 Eh

SHARK setup successfully completed in   1.7 seconds

Maximum memory used throughout the entire GTOINT-calculation: 166.2 MB
-------------------------------------------------------------------------------
                                 ORCA SCF
-------------------------------------------------------------------------------

------------
SCF SETTINGS
------------
Hamiltonian:
 Density Functional     Method          .... DFT(GTOs)
 Exchange Functional    Exchange        .... B88
   X-Alpha parameter    XAlpha          ....  0.666667
   Becke's b parameter  XBeta           ....  0.004200
 Correlation Functional Correlation     .... LYP
 LDA part of GGA corr.  LDAOpt          .... VWN-5
 Gradients option       PostSCFGGA      .... off
 Hybrid DFT is turned on
   Fraction HF Exchange ScalHFX         ....  0.200000
   Scaling of DF-GGA-X  ScalDFX         ....  0.720000
   Scaling of DF-GGA-C  ScalDFC         ....  0.810000
   Scaling of DF-LDA-C  ScalLDAC        ....  1.000000
   Perturbative correction              ....  0.000000
   Density functional embedding theory  .... OFF
   NL short-range parameter             ....  4.800000
 RI-approximation to the Coulomb term is turned on
   Number of AuxJ basis functions       .... 2579
   RIJ-COSX (HFX calculated with COS-X)).... on


General Settings:
 Integral files         IntName         .... 11
 Hartree-Fock type      HFTyp           .... RHF
 Total Charge           Charge          ....    0
 Multiplicity           Mult            ....    1
 Number of Electrons    NEL             ....  332
 Basis Dimension        Dim             ....  800
 Nuclear Repulsion      ENuc            ....   5218.6503516354 Eh

Convergence Acceleration:
 DIIS                   CNVDIIS         .... on
   Start iteration      DIISMaxIt       ....    12
   Startup error        DIISStart       ....  0.200000
   # of expansion vecs  DIISMaxEq       ....     5
   Bias factor          DIISBfac        ....   1.050
   Max. coefficient     DIISMaxC        ....  10.000
 Trust-Rad. Augm. Hess. CNVTRAH         .... auto
   Auto Start mean grad. ratio tolernc. ....  1.125000
   Auto Start start iteration           ....     1
   Auto Start num. interpolation iter.  ....    10
   Max. Number of Micro iterations      ....    16
   Max. Number of Macro iterations      .... Maxiter - #DIIS iter
   Number of Davidson start vectors     ....     2
   Converg. threshold I  (grad. norm)   ....   1.000e-05
   Converg. threshold II (energy diff.) ....   1.000e-08
   Grad. Scal. Fac. for Micro threshold ....   0.100
   Minimum threshold for Micro iter.    ....   0.010
   NR start threshold (gradient norm)   ....   0.001
   Initial trust radius                 ....   0.400
   Minimum AH scaling param. (alpha)    ....   1.000
   Maximum AH scaling param. (alpha)    .... 1000.000
   Orbital update algorithm             .... Taylor
   White noise on init. David. guess    .... on
   Maximum white noise                  ....   0.010
   Quad. conv. algorithm                .... NR
 SOSCF                  CNVSOSCF        .... on
   Start iteration      SOSCFMaxIt      ....   150
   Startup grad/error   SOSCFStart      ....  0.003300
 Level Shifting         CNVShift        .... on
   Level shift para.    LevelShift      ....    0.2500
   Turn off err/grad.   ShiftErr        ....    0.0010
 Zerner damping         CNVZerner       .... off
 Static damping         CNVDamp         .... on
   Fraction old density DampFac         ....    0.7000
   Max. Damping (<1)    DampMax         ....    0.9800
   Min. Damping (>=0)   DampMin         ....    0.0000
   Turn off err/grad.   DampErr         ....    0.1000
 Fernandez-Rico         CNVRico         .... off

SCF Procedure:
 Maximum # iterations   MaxIter         ....   125
 SCF integral mode      SCFMode         .... Direct
   Integral package                     .... SHARK and LIBINT hybrid scheme
 Reset frequency        DirectResetFreq ....    20
 Integral Threshold     Thresh          ....  2.500e-11 Eh
 Primitive CutOff       TCut            ....  2.500e-12 Eh

Convergence Tolerance:
 Convergence Check Mode ConvCheckMode   .... Total+1el-Energy
 Convergence forced     ConvForced      .... 0
 Energy Change          TolE            ....  1.000e-08 Eh
 1-El. energy change                    ....  1.000e-05 Eh
 Orbital Gradient       TolG            ....  1.000e-05
 Orbital Rotation angle TolX            ....  1.000e-05
 DIIS Error             TolErr          ....  5.000e-07


Diagonalization of the overlap matrix:
Smallest eigenvalue                        ... 1.038e-04
Time for diagonalization                   ...    0.134 sec
Threshold for overlap eigenvalues          ... 1.000e-08
Number of eigenvalues below threshold      ... 0
Time for construction of square roots      ...    0.064 sec
Total time needed                          ...    0.199 sec

---------------------
INITIAL GUESS: MOREAD
---------------------
Guess MOs are being read from file: 11.ges
Input Geometry matches current geometry (good)
Input basis set matches current basis set (good)
MOs were renormalized
MOs were reorthogonalized (Cholesky)
                      ------------------
                      INITIAL GUESS DONE (   0.3 sec)
                      ------------------
-------------------
DFT GRID GENERATION
-------------------

General Integration Accuracy     IntAcc      ... 4.388
Radial Grid Type                 RadialGrid  ... OptM3 with GC (2021)
Angular Grid (max. ang.)         AngularGrid ... 4 (Lebedev-302)
Angular grid pruning method      GridPruning ... 4 (adaptive)
Weight generation scheme         WeightScheme... Becke
Basis function cutoff            BFCut       ... 1.0000e-11
Integration weight cutoff        WCut        ... 1.0000e-14
Angular grids for H and He will be reduced by one unit
Partially contracted basis set               ... off
Rotationally invariant grid construction     ... off

Total number of grid points                  ...   376527
Total number of batches                      ...     5922
Average number of points per batch           ...       63
Average number of grid points per atom       ...     4766
Time for grid setup =   14.198 sec

--------------------
COSX GRID GENERATION
--------------------

GRIDX 1
-------
General Integration Accuracy     IntAcc      ... 3.816
Radial Grid Type                 RadialGrid  ... OptM3 with GC (2021)
Angular Grid (max. ang.)         AngularGrid ... 1 (Lebedev-50)
Angular grid pruning method      GridPruning ... 4 (adaptive)
Weight generation scheme         WeightScheme... Becke
Basis function cutoff            BFCut       ... 1.0000e-11
Integration weight cutoff        WCut        ... 1.0000e-14
Angular grids for H and He will be reduced by one unit
Partially contracted basis set               ... on
Rotationally invariant grid construction     ... off

Total number of grid points                  ...    47681
Total number of batches                      ...      786
Average number of points per batch           ...       60
Average number of grid points per atom       ...      604
UseSFitting                                  ... on

GRIDX 2
-------
General Integration Accuracy     IntAcc      ... 4.020
Radial Grid Type                 RadialGrid  ... OptM3 with GC (2021)
Angular Grid (max. ang.)         AngularGrid ... 2 (Lebedev-110)
Angular grid pruning method      GridPruning ... 4 (adaptive)
Weight generation scheme         WeightScheme... Becke
Basis function cutoff            BFCut       ... 1.0000e-11
Integration weight cutoff        WCut        ... 1.0000e-14
Angular grids for H and He will be reduced by one unit
Partially contracted basis set               ... on
Rotationally invariant grid construction     ... off

Total number of grid points                  ...   103435
Total number of batches                      ...     1656
Average number of points per batch           ...       62
Average number of grid points per atom       ...     1309
UseSFitting                                  ... on

GRIDX 3
-------
General Integration Accuracy     IntAcc      ... 4.338
Radial Grid Type                 RadialGrid  ... OptM3 with GC (2021)
Angular Grid (max. ang.)         AngularGrid ... 3 (Lebedev-194)
Angular grid pruning method      GridPruning ... 4 (adaptive)
Weight generation scheme         WeightScheme... Becke
Basis function cutoff            BFCut       ... 1.0000e-11
Integration weight cutoff        WCut        ... 1.0000e-14
Angular grids for H and He will be reduced by one unit
Partially contracted basis set               ... on
Rotationally invariant grid construction     ... off

Total number of grid points                  ...   225962
Total number of batches                      ...     3573
Average number of points per batch           ...       63
Average number of grid points per atom       ...     2860
UseSFitting                                  ... on

Time for X-Grid setup             =   28.693 sec

--------------
SCF ITERATIONS
--------------
ITER       Energy         Delta-E        Max-DP      RMS-DP      [F,P]     Damp
               ***  Starting incremental Fock matrix formation  ***
                      *** Initiating the SOSCF procedure ***
                      *** Re-Reading the Fockian *** 
                      *** Removing any level shift *** 
ITER      Energy       Delta-E        Grad      Rot      Max-DP    RMS-DP
  0  -2251.65043190 -2251.6504319028  0.000001  0.000001  0.000006  0.000000
               *** Restarting incremental Fock matrix formation ***
                  ***Gradient check signals convergence***
              ***Rediagonalizing the Fockian in SOSCF/NRSCF***

               *****************************************************
               *                     SUCCESS                       *
               *           SCF CONVERGED AFTER   1 CYCLES          *
               *****************************************************

Old exchange energy                            =    -57.654165626 Eh
New exchange energy                            =    -57.654024091 Eh
Exchange energy change after final integration =      0.000141535 Eh
Total energy after final integration           =  -2251.650290368 Eh
Final COS-X integration done in                =   545.193 sec

----------------
TOTAL SCF ENERGY
----------------

Total Energy       :        -2251.65029037 Eh          -61270.51933 eV

Components:
Nuclear Repulsion  :         5218.65035164 Eh          142006.69555 eV
Electronic Energy  :        -7470.30064200 Eh         -203277.21488 eV
One Electron Energy:       -13463.91366822 Eh         -366371.71689 eV
Two Electron Energy:         5993.61302621 Eh          163094.50201 eV
Max COSX asymmetry :            0.00000533 Eh               0.00015 eV

Virial components:
Potential Energy   :        -4485.95000030 Eh         -122068.90537 eV
Kinetic Energy     :         2234.29970993 Eh           60798.38604 eV
Virial Ratio       :            2.00776556


DFT components:
N(Alpha)           :      165.999798423139 electrons
N(Beta)            :      165.999798423139 electrons
N(Total)           :      331.999596846279 electrons
E(X)               :     -229.256408843368 Eh       
E(C)               :      -13.582099779944 Eh       
E(XC)              :     -242.838508623312 Eh       
DFET-embed. en.    :        0.000000000000 Eh       

---------------
SCF CONVERGENCE
---------------

  Last Energy change         ...    1.4597e-10  Tolerance :   1.0000e-08
  Last MAX-Density change    ...    6.6613e-15  Tolerance :   1.0000e-07
  Last RMS-Density change    ...    3.5569e-17  Tolerance :   5.0000e-09
  Last Orbital Gradient      ...    7.9526e-07  Tolerance :   1.0000e-05
  Last Orbital Rotation      ...    2.8931e-06  Tolerance :   1.0000e-05

             **** THE GBW FILE WAS UPDATED (11.gbw) ****
             **** DENSITY 11.scfp WAS UPDATED ****
             **** ENERGY FILE WAS UPDATED (11.en.tmp) ****
             **** THE GBW FILE WAS UPDATED (11.gbw) ****
             **** DENSITY 11.scfp WAS UPDATED ****
----------------
ORBITAL ENERGIES
----------------

  NO   OCC          E(Eh)            E(eV) 
   0   2.0000     -19.216178      -522.8988 
   1   2.0000     -19.186367      -522.0876 
   2   2.0000     -19.177226      -521.8389 
   3   2.0000     -19.166279      -521.5410 
   4   2.0000     -19.164273      -521.4864 
   5   2.0000     -19.157231      -521.2948 
   6   2.0000     -19.153425      -521.1912 
   7   2.0000     -19.152282      -521.1601 
   8   2.0000     -19.149891      -521.0950 
   9   2.0000     -19.144522      -520.9489 
  10   2.0000     -19.130180      -520.5587 
  11   2.0000     -19.129449      -520.5388 
  12   2.0000     -19.085933      -519.3546 
  13   2.0000     -19.076867      -519.1079 
  14   2.0000     -10.309459      -280.5346 
  15   2.0000     -10.301850      -280.3276 
  16   2.0000     -10.299168      -280.2546 
  17   2.0000     -10.284275      -279.8494 
  18   2.0000     -10.276665      -279.6423 
  19   2.0000     -10.265919      -279.3499 
  20   2.0000     -10.265418      -279.3362 
  21   2.0000     -10.249522      -278.9037 
  22   2.0000     -10.249174      -278.8942 
  23   2.0000     -10.248352      -278.8718 
  24   2.0000     -10.245726      -278.8004 
  25   2.0000     -10.244085      -278.7557 
  26   2.0000     -10.242491      -278.7124 
  27   2.0000     -10.241587      -278.6878 
  28   2.0000     -10.238648      -278.6078 
  29   2.0000     -10.233871      -278.4778 
  30   2.0000     -10.231654      -278.4175 
  31   2.0000     -10.226202      -278.2691 
  32   2.0000     -10.201002      -277.5834 
  33   2.0000     -10.197546      -277.4893 
  34   2.0000     -10.195865      -277.4436 
  35   2.0000     -10.195345      -277.4294 
  36   2.0000     -10.194874      -277.4166 
  37   2.0000     -10.192483      -277.3516 
  38   2.0000     -10.191938      -277.3367 
  39   2.0000     -10.190512      -277.2979 
  40   2.0000     -10.190326      -277.2929 
  41   2.0000     -10.186725      -277.1949 
  42   2.0000     -10.185762      -277.1687 
  43   2.0000     -10.183069      -277.0954 
  44   2.0000     -10.164816      -276.5987 
  45   2.0000      -1.164615       -31.6908 
  46   2.0000      -1.116736       -30.3879 
  47   2.0000      -1.113627       -30.3033 
  48   2.0000      -1.097673       -29.8692 
  49   2.0000      -1.069777       -29.1101 
  50   2.0000      -1.065191       -28.9853 
  51   2.0000      -1.049195       -28.5500 
  52   2.0000      -1.044463       -28.4213 
  53   2.0000      -1.023944       -27.8629 
  54   2.0000      -1.011465       -27.5234 
  55   2.0000      -1.004816       -27.3424 
  56   2.0000      -1.003032       -27.2939 
  57   2.0000      -0.998934       -27.1824 
  58   2.0000      -0.923940       -25.1417 
  59   2.0000      -0.881905       -23.9979 
  60   2.0000      -0.876403       -23.8481 
  61   2.0000      -0.830970       -22.6119 
  62   2.0000      -0.822645       -22.3853 
  63   2.0000      -0.821422       -22.3520 
  64   2.0000      -0.804098       -21.8806 
  65   2.0000      -0.801703       -21.8155 
  66   2.0000      -0.793158       -21.5829 
  67   2.0000      -0.784540       -21.3484 
  68   2.0000      -0.757618       -20.6158 
  69   2.0000      -0.753045       -20.4914 
  70   2.0000      -0.743278       -20.2256 
  71   2.0000      -0.724938       -19.7266 
  72   2.0000      -0.717261       -19.5177 
  73   2.0000      -0.692991       -18.8573 
  74   2.0000      -0.691334       -18.8121 
  75   2.0000      -0.683863       -18.6089 
  76   2.0000      -0.663215       -18.0470 
  77   2.0000      -0.657508       -17.8917 
  78   2.0000      -0.650983       -17.7141 
  79   2.0000      -0.638041       -17.3620 
  80   2.0000      -0.629631       -17.1331 
  81   2.0000      -0.618235       -16.8230 
  82   2.0000      -0.607649       -16.5350 
  83   2.0000      -0.597804       -16.2671 
  84   2.0000      -0.589567       -16.0429 
  85   2.0000      -0.586416       -15.9572 
  86   2.0000      -0.580842       -15.8055 
  87   2.0000      -0.576812       -15.6958 
  88   2.0000      -0.566806       -15.4236 
  89   2.0000      -0.558214       -15.1898 
  90   2.0000      -0.551678       -15.0119 
  91   2.0000      -0.548574       -14.9274 
  92   2.0000      -0.534272       -14.5383 
  93   2.0000      -0.533374       -14.5138 
  94   2.0000      -0.525943       -14.3116 
  95   2.0000      -0.523017       -14.2320 
  96   2.0000      -0.516856       -14.0644 
  97   2.0000      -0.514780       -14.0079 
  98   2.0000      -0.513575       -13.9751 
  99   2.0000      -0.506373       -13.7791 
 100   2.0000      -0.503450       -13.6996 
 101   2.0000      -0.501387       -13.6434 
 102   2.0000      -0.497658       -13.5420 
 103   2.0000      -0.488386       -13.2897 
 104   2.0000      -0.486962       -13.2509 
 105   2.0000      -0.479855       -13.0575 
 106   2.0000      -0.476036       -12.9536 
 107   2.0000      -0.473622       -12.8879 
 108   2.0000      -0.471638       -12.8339 
 109   2.0000      -0.469542       -12.7769 
 110   2.0000      -0.466801       -12.7023 
 111   2.0000      -0.459089       -12.4925 
 112   2.0000      -0.450819       -12.2674 
 113   2.0000      -0.448613       -12.2074 
 114   2.0000      -0.441037       -12.0012 
 115   2.0000      -0.435468       -11.8497 
 116   2.0000      -0.433281       -11.7902 
 117   2.0000      -0.430497       -11.7144 
 118   2.0000      -0.428480       -11.6595 
 119   2.0000      -0.424727       -11.5574 
 120   2.0000      -0.421514       -11.4700 
 121   2.0000      -0.417827       -11.3696 
 122   2.0000      -0.415914       -11.3176 
 123   2.0000      -0.413886       -11.2624 
 124   2.0000      -0.405605       -11.0371 
 125   2.0000      -0.398588       -10.8461 
 126   2.0000      -0.396541       -10.7904 
 127   2.0000      -0.390488       -10.6257 
 128   2.0000      -0.388435       -10.5699 
 129   2.0000      -0.381717       -10.3870 
 130   2.0000      -0.378258       -10.2929 
 131   2.0000      -0.372602       -10.1390 
 132   2.0000      -0.368843       -10.0367 
 133   2.0000      -0.366187        -9.9645 
 134   2.0000      -0.363603        -9.8941 
 135   2.0000      -0.359003        -9.7690 
 136   2.0000      -0.358802        -9.7635 
 137   2.0000      -0.357100        -9.7172 
 138   2.0000      -0.355202        -9.6655 
 139   2.0000      -0.351251        -9.5580 
 140   2.0000      -0.349201        -9.5022 
 141   2.0000      -0.344654        -9.3785 
 142   2.0000      -0.342704        -9.3254 
 143   2.0000      -0.338788        -9.2189 
 144   2.0000      -0.336019        -9.1436 
 145   2.0000      -0.331266        -9.0142 
 146   2.0000      -0.328248        -8.9321 
 147   2.0000      -0.323524        -8.8035 
 148   2.0000      -0.321641        -8.7523 
 149   2.0000      -0.321145        -8.7388 
 150   2.0000      -0.307385        -8.3644 
 151   2.0000      -0.294624        -8.0171 
 152   2.0000      -0.293045        -7.9742 
 153   2.0000      -0.289214        -7.8699 
 154   2.0000      -0.282479        -7.6866 
 155   2.0000      -0.273281        -7.4364 
 156   2.0000      -0.268535        -7.3072 
 157   2.0000      -0.262410        -7.1405 
 158   2.0000      -0.261218        -7.1081 
 159   2.0000      -0.253123        -6.8878 
 160   2.0000      -0.242891        -6.6094 
 161   2.0000      -0.232386        -6.3235 
 162   2.0000      -0.230560        -6.2738 
 163   2.0000      -0.230456        -6.2710 
 164   2.0000      -0.213167        -5.8006 
 165   2.0000      -0.212977        -5.7954 
 166   0.0000      -0.066437        -1.8078 
 167   0.0000      -0.052840        -1.4378 
 168   0.0000      -0.011403        -0.3103 
 169   0.0000      -0.001123        -0.0306 
 170   0.0000       0.025345         0.6897 
 171   0.0000       0.027836         0.7575 
 172   0.0000       0.031620         0.8604 
 173   0.0000       0.034189         0.9303 
 174   0.0000       0.036500         0.9932 
 175   0.0000       0.045059         1.2261 
 176   0.0000       0.047942         1.3046 
 177   0.0000       0.056206         1.5294 
 178   0.0000       0.061459         1.6724 
 179   0.0000       0.062229         1.6933 
 180   0.0000       0.068053         1.8518 
 181   0.0000       0.070404         1.9158 
 182   0.0000       0.074412         2.0249 
 183   0.0000       0.078254         2.1294 
 184   0.0000       0.086124         2.3435 
 185   0.0000       0.091172         2.4809 
 186   0.0000       0.093064         2.5324 
 187   0.0000       0.094024         2.5585 
 188   0.0000       0.095500         2.5987 
 189   0.0000       0.097850         2.6626 
 190   0.0000       0.103472         2.8156 
 191   0.0000       0.104800         2.8517 
 192   0.0000       0.109048         2.9673 
 193   0.0000       0.114514         3.1161 
 194   0.0000       0.117245         3.1904 
 195   0.0000       0.119378         3.2484 
 196   0.0000       0.122905         3.3444 
 197   0.0000       0.124094         3.3768 
 198   0.0000       0.131310         3.5731 
 199   0.0000       0.134600         3.6627 
 200   0.0000       0.137008         3.7282 
 201   0.0000       0.137808         3.7499 
 202   0.0000       0.143385         3.9017 
 203   0.0000       0.146825         3.9953 
 204   0.0000       0.152204         4.1417 
 205   0.0000       0.157565         4.2876 
 206   0.0000       0.161077         4.3831 
 207   0.0000       0.169325         4.6076 
 208   0.0000       0.169887         4.6229 
 209   0.0000       0.174064         4.7365 
 210   0.0000       0.176523         4.8034 
 211   0.0000       0.179521         4.8850 
 212   0.0000       0.185027         5.0348 
 213   0.0000       0.186223         5.0674 
 214   0.0000       0.188915         5.1406 
 215   0.0000       0.191642         5.2148 
 216   0.0000       0.197451         5.3729 
 217   0.0000       0.202688         5.5154 
 218   0.0000       0.204978         5.5777 
 219   0.0000       0.208138         5.6637 
 220   0.0000       0.216212         5.8834 
 221   0.0000       0.228653         6.2220 
 222   0.0000       0.230340         6.2679 
 223   0.0000       0.238024         6.4770 
 224   0.0000       0.241486         6.5712 
 225   0.0000       0.248093         6.7510 
 226   0.0000       0.250483         6.8160 
 227   0.0000       0.251653         6.8478 
 228   0.0000       0.256660         6.9841 
 229   0.0000       0.262752         7.1498 
 230   0.0000       0.264438         7.1957 
 231   0.0000       0.265529         7.2254 
 232   0.0000       0.269106         7.3227 
 233   0.0000       0.271551         7.3893 
 234   0.0000       0.276317         7.5190 
 235   0.0000       0.279649         7.6096 
 236   0.0000       0.286787         7.8039 
 237   0.0000       0.290545         7.9061 
 238   0.0000       0.295343         8.0367 
 239   0.0000       0.298107         8.1119 
 240   0.0000       0.306513         8.3406 
 241   0.0000       0.307622         8.3708 
 242   0.0000       0.315649         8.5892 
 243   0.0000       0.318697         8.6722 
 244   0.0000       0.321530         8.7493 
 245   0.0000       0.336333         9.1521 
 246   0.0000       0.337445         9.1823 
 247   0.0000       0.341792         9.3006 
 248   0.0000       0.351902         9.5757 
 249   0.0000       0.355448         9.6722 
 250   0.0000       0.357810         9.7365 
 251   0.0000       0.363865         9.9013 
 252   0.0000       0.368638        10.0312 
 253   0.0000       0.381649        10.3852 
 254   0.0000       0.382493        10.4082 
 255   0.0000       0.387325        10.5397 
 256   0.0000       0.392123        10.6702 
 257   0.0000       0.394258        10.7283 
 258   0.0000       0.407007        11.0752 
 259   0.0000       0.416230        11.3262 
 260   0.0000       0.418709        11.3937 
 261   0.0000       0.425380        11.5752 
 262   0.0000       0.427320        11.6280 
 263   0.0000       0.431071        11.7300 
 264   0.0000       0.432550        11.7703 
 265   0.0000       0.437946        11.9171 
 266   0.0000       0.439273        11.9532 
 267   0.0000       0.442723        12.0471 
 268   0.0000       0.444731        12.1018 
 269   0.0000       0.450201        12.2506 
 270   0.0000       0.457486        12.4488 
 271   0.0000       0.461100        12.5472 
 272   0.0000       0.468716        12.7544 
 273   0.0000       0.473147        12.8750 
 274   0.0000       0.476975        12.9792 
 275   0.0000       0.478189        13.0122 
 276   0.0000       0.483514        13.1571 
 277   0.0000       0.487114        13.2550 
 278   0.0000       0.488942        13.3048 
 279   0.0000       0.492306        13.3963 
 280   0.0000       0.494028        13.4432 
 281   0.0000       0.496627        13.5139 
 282   0.0000       0.499944        13.6042 
 283   0.0000       0.503320        13.6960 
 284   0.0000       0.505607        13.7583 
 285   0.0000       0.508041        13.8245 
 286   0.0000       0.509768        13.8715 
 287   0.0000       0.513412        13.9707 
 288   0.0000       0.520042        14.1511 
 289   0.0000       0.522656        14.2222 
 290   0.0000       0.527062        14.3421 
 291   0.0000       0.529054        14.3963 
 292   0.0000       0.532140        14.4803 
 293   0.0000       0.539405        14.6780 
 294   0.0000       0.541250        14.7282 
 295   0.0000       0.548503        14.9255 
 296   0.0000       0.549555        14.9541 
 297   0.0000       0.549950        14.9649 
 298   0.0000       0.551363        15.0034 
 299   0.0000       0.560538        15.2530 
 300   0.0000       0.564767        15.3681 
 301   0.0000       0.568301        15.4642 
 302   0.0000       0.569417        15.4946 
 303   0.0000       0.574626        15.6364 
 304   0.0000       0.577539        15.7156 
 305   0.0000       0.579607        15.7719 
 306   0.0000       0.584758        15.9121 
 307   0.0000       0.586955        15.9719 
 308   0.0000       0.588321        16.0090 
 309   0.0000       0.591979        16.1086 
 310   0.0000       0.592239        16.1156 
 311   0.0000       0.597091        16.2477 
 312   0.0000       0.598010        16.2727 
 313   0.0000       0.602748        16.4016 
 314   0.0000       0.603558        16.4237 
 315   0.0000       0.607051        16.5187 
 316   0.0000       0.609475        16.5846 
 317   0.0000       0.611660        16.6441 
 318   0.0000       0.612434        16.6652 
 319   0.0000       0.613666        16.6987 
 320   0.0000       0.615714        16.7544 
 321   0.0000       0.619257        16.8508 
 322   0.0000       0.620278        16.8786 
 323   0.0000       0.623259        16.9598 
 324   0.0000       0.624656        16.9977 
 325   0.0000       0.626782        17.0556 
 326   0.0000       0.627735        17.0815 
 327   0.0000       0.631361        17.1802 
 328   0.0000       0.633803        17.2467 
 329   0.0000       0.635786        17.3006 
 330   0.0000       0.643591        17.5130 
 331   0.0000       0.646702        17.5976 
 332   0.0000       0.652098        17.7445 
 333   0.0000       0.655581        17.8393 
 334   0.0000       0.658914        17.9300 
 335   0.0000       0.664195        18.0737 
 336   0.0000       0.665102        18.0983 
 337   0.0000       0.666942        18.1484 
 338   0.0000       0.669335        18.2135 
 339   0.0000       0.672486        18.2993 
 340   0.0000       0.675040        18.3688 
 341   0.0000       0.677133        18.4257 
 342   0.0000       0.680592        18.5198 
 343   0.0000       0.683807        18.6073 
 344   0.0000       0.685852        18.6630 
 345   0.0000       0.689912        18.7735 
 346   0.0000       0.690419        18.7873 
 347   0.0000       0.696327        18.9480 
 348   0.0000       0.698045        18.9948 
 349   0.0000       0.698944        19.0192 
 350   0.0000       0.701784        19.0965 
 351   0.0000       0.703728        19.1494 
 352   0.0000       0.708053        19.2671 
 353   0.0000       0.713421        19.4132 
 354   0.0000       0.716702        19.5024 
 355   0.0000       0.722353        19.6562 
 356   0.0000       0.725642        19.7457 
 357   0.0000       0.728363        19.8198 
 358   0.0000       0.734189        19.9783 
 359   0.0000       0.743254        20.2250 
 360   0.0000       0.746620        20.3166 
 361   0.0000       0.747575        20.3425 
 362   0.0000       0.752610        20.4796 
 363   0.0000       0.756802        20.5936 
 364   0.0000       0.757711        20.6184 
 365   0.0000       0.762300        20.7432 
 366   0.0000       0.763635        20.7796 
 367   0.0000       0.765638        20.8341 
 368   0.0000       0.769380        20.9359 
 369   0.0000       0.775554        21.1039 
 370   0.0000       0.780401        21.2358 
 371   0.0000       0.787455        21.4277 
 372   0.0000       0.790183        21.5020 
 373   0.0000       0.792359        21.5612 
 374   0.0000       0.800528        21.7835 
 375   0.0000       0.807934        21.9850 
 376   0.0000       0.812878        22.1195 
 377   0.0000       0.816304        22.2128 
 378   0.0000       0.823012        22.3953 
 379   0.0000       0.826188        22.4817 
 380   0.0000       0.831910        22.6374 
 381   0.0000       0.843825        22.9617 
 382   0.0000       0.852937        23.2096 
 383   0.0000       0.866564        23.5804 
 384   0.0000       0.872895        23.7527 
 385   0.0000       0.880852        23.9692 
 386   0.0000       0.894299        24.3351 
 387   0.0000       0.906944        24.6792 
 388   0.0000       0.912072        24.8187 
 389   0.0000       0.918889        25.0042 
 390   0.0000       0.923069        25.1180 
 391   0.0000       0.936921        25.4949 
 392   0.0000       0.940716        25.5982 
 393   0.0000       0.945504        25.7285 
 394   0.0000       0.946948        25.7678 
 395   0.0000       0.954498        25.9732 
 396   0.0000       0.963227        26.2107 
 397   0.0000       0.964034        26.2327 
 398   0.0000       0.973923        26.5018 
 399   0.0000       0.977353        26.5951 
 400   0.0000       0.992656        27.0115 
 401   0.0000       0.995129        27.0788 
 402   0.0000       1.006437        27.3865 
 403   0.0000       1.009079        27.4584 
 404   0.0000       1.018430        27.7129 
 405   0.0000       1.022289        27.8179 
 406   0.0000       1.025142        27.8955 
 407   0.0000       1.030672        28.0460 
 408   0.0000       1.047837        28.5131 
 409   0.0000       1.049558        28.5599 
 410   0.0000       1.053901        28.6781 
 411   0.0000       1.058169        28.7943 
 412   0.0000       1.061310        28.8797 
 413   0.0000       1.065549        28.9951 
 414   0.0000       1.072859        29.1940 
 415   0.0000       1.077128        29.3102 
 416   0.0000       1.082001        29.4428 
 417   0.0000       1.082522        29.4569 
 418   0.0000       1.087602        29.5952 
 419   0.0000       1.101795        29.9814 
 420   0.0000       1.106428        30.1074 
 421   0.0000       1.112363        30.2689 
 422   0.0000       1.113453        30.2986 
 423   0.0000       1.117088        30.3975 
 424   0.0000       1.128787        30.7159 
 425   0.0000       1.135730        30.9048 
 426   0.0000       1.142803        31.0972 
 427   0.0000       1.154928        31.4272 
 428   0.0000       1.160223        31.5713 
 429   0.0000       1.162634        31.6369 
 430   0.0000       1.165112        31.7043 
 431   0.0000       1.184085        32.2206 
 432   0.0000       1.188690        32.3459 
 433   0.0000       1.190579        32.3973 
 434   0.0000       1.198168        32.6038 
 435   0.0000       1.200058        32.6552 
 436   0.0000       1.212015        32.9806 
 437   0.0000       1.213009        33.0077 
 438   0.0000       1.222623        33.2693 
 439   0.0000       1.225504        33.3476 
 440   0.0000       1.235234        33.6124 
 441   0.0000       1.241758        33.7899 
 442   0.0000       1.241909        33.7941 
 443   0.0000       1.247252        33.9395 
 444   0.0000       1.256670        34.1957 
 445   0.0000       1.257582        34.2205 
 446   0.0000       1.264369        34.4052 
 447   0.0000       1.269824        34.5537 
 448   0.0000       1.272736        34.6329 
 449   0.0000       1.276489        34.7350 
 450   0.0000       1.281694        34.8767 
 451   0.0000       1.291682        35.1485 
 452   0.0000       1.297370        35.3032 
 453   0.0000       1.300430        35.3865 
 454   0.0000       1.306442        35.5501 
 455   0.0000       1.308389        35.6031 
 456   0.0000       1.313230        35.7348 
 457   0.0000       1.327250        36.1163 
 458   0.0000       1.328394        36.1474 
 459   0.0000       1.340344        36.4726 
 460   0.0000       1.343372        36.5550 
 461   0.0000       1.351486        36.7758 
 462   0.0000       1.355397        36.8822 
 463   0.0000       1.358494        36.9665 
 464   0.0000       1.363628        37.1062 
 465   0.0000       1.364381        37.1267 
 466   0.0000       1.385014        37.6882 
 467   0.0000       1.394121        37.9360 
 468   0.0000       1.397139        38.0181 
 469   0.0000       1.407863        38.3099 
 470   0.0000       1.419249        38.6197 
 471   0.0000       1.426349        38.8129 
 472   0.0000       1.432915        38.9916 
 473   0.0000       1.442411        39.2500 
 474   0.0000       1.458425        39.6858 
 475   0.0000       1.464301        39.8457 
 476   0.0000       1.467394        39.9298 
 477   0.0000       1.468830        39.9689 
 478   0.0000       1.473938        40.1079 
 479   0.0000       1.477157        40.1955 
 480   0.0000       1.486090        40.4386 
 481   0.0000       1.492830        40.6220 
 482   0.0000       1.498050        40.7640 
 483   0.0000       1.505173        40.9579 
 484   0.0000       1.511833        41.1391 
 485   0.0000       1.515590        41.2413 
 486   0.0000       1.517017        41.2801 
 487   0.0000       1.520039        41.3624 
 488   0.0000       1.524228        41.4763 
 489   0.0000       1.529064        41.6080 
 490   0.0000       1.531664        41.6787 
 491   0.0000       1.539936        41.9038 
 492   0.0000       1.548789        42.1447 
 493   0.0000       1.550878        42.2015 
 494   0.0000       1.555527        42.3280 
 495   0.0000       1.558714        42.4148 
 496   0.0000       1.568590        42.6835 
 497   0.0000       1.571147        42.7531 
 498   0.0000       1.573012        42.8038 
 499   0.0000       1.579621        42.9837 
 500   0.0000       1.591459        43.3058 
 501   0.0000       1.593135        43.3514 
 502   0.0000       1.604110        43.6501 
 503   0.0000       1.609118        43.7863 
 504   0.0000       1.619794        44.0768 
 505   0.0000       1.625019        44.2190 
 506   0.0000       1.634214        44.4692 
 507   0.0000       1.636224        44.5239 
 508   0.0000       1.637655        44.5629 
 509   0.0000       1.652629        44.9703 
 510   0.0000       1.657687        45.1080 
 511   0.0000       1.663778        45.2737 
 512   0.0000       1.666913        45.3590 
 513   0.0000       1.673076        45.5267 
 514   0.0000       1.675998        45.6062 
 515   0.0000       1.683363        45.8066 
 516   0.0000       1.687414        45.9169 
 517   0.0000       1.691024        46.0151 
 518   0.0000       1.695122        46.1266 
 519   0.0000       1.697565        46.1931 
 520   0.0000       1.700463        46.2720 
 521   0.0000       1.709991        46.5312 
 522   0.0000       1.711670        46.5769 
 523   0.0000       1.715799        46.6893 
 524   0.0000       1.720513        46.8175 
 525   0.0000       1.722934        46.8834 
 526   0.0000       1.726590        46.9829 
 527   0.0000       1.732430        47.1418 
 528   0.0000       1.732840        47.1530 
 529   0.0000       1.733379        47.1676 
 530   0.0000       1.741077        47.3771 
 531   0.0000       1.746111        47.5141 
 532   0.0000       1.747359        47.5481 
 533   0.0000       1.750322        47.6287 
 534   0.0000       1.756288        47.7910 
 535   0.0000       1.757546        47.8253 
 536   0.0000       1.759305        47.8731 
 537   0.0000       1.768754        48.1302 
 538   0.0000       1.771996        48.2185 
 539   0.0000       1.779091        48.4115 
 540   0.0000       1.780692        48.4551 
 541   0.0000       1.784199        48.5505 
 542   0.0000       1.787543        48.6415 
 543   0.0000       1.791168        48.7402 
 544   0.0000       1.795925        48.8696 
 545   0.0000       1.796076        48.8737 
 546   0.0000       1.799468        48.9660 
 547   0.0000       1.804142        49.0932 
 548   0.0000       1.805577        49.1323 
 549   0.0000       1.806726        49.1635 
 550   0.0000       1.811795        49.3014 
 551   0.0000       1.823791        49.6279 
 552   0.0000       1.824640        49.6510 
 553   0.0000       1.825494        49.6742 
 554   0.0000       1.830921        49.8219 
 555   0.0000       1.835585        49.9488 
 556   0.0000       1.839363        50.0516 
 557   0.0000       1.844238        50.1843 
 558   0.0000       1.846682        50.2508 
 559   0.0000       1.849116        50.3170 
 560   0.0000       1.855208        50.4828 
 561   0.0000       1.863943        50.7205 
 562   0.0000       1.869495        50.8715 
 563   0.0000       1.875238        51.0278 
 564   0.0000       1.880974        51.1839 
 565   0.0000       1.881070        51.1865 
 566   0.0000       1.888063        51.3768 
 567   0.0000       1.893023        51.5118 
 568   0.0000       1.894569        51.5538 
 569   0.0000       1.899320        51.6831 
 570   0.0000       1.903410        51.7944 
 571   0.0000       1.905021        51.8383 
 572   0.0000       1.908715        51.9388 
 573   0.0000       1.918926        52.2166 
 574   0.0000       1.920638        52.2632 
 575   0.0000       1.921792        52.2946 
 576   0.0000       1.925075        52.3840 
 577   0.0000       1.927997        52.4635 
 578   0.0000       1.931084        52.5475 
 579   0.0000       1.942365        52.8545 
 580   0.0000       1.946749        52.9737 
 581   0.0000       1.960637        53.3517 
 582   0.0000       1.961479        53.3746 
 583   0.0000       1.966741        53.5177 
 584   0.0000       1.969021        53.5798 
 585   0.0000       1.971771        53.6546 
 586   0.0000       1.978883        53.8481 
 587   0.0000       1.984855        54.0107 
 588   0.0000       1.988485        54.1094 
 589   0.0000       1.992652        54.2228 
 590   0.0000       1.998389        54.3789 
 591   0.0000       2.007417        54.6246 
 592   0.0000       2.016244        54.8648 
 593   0.0000       2.016830        54.8807 
 594   0.0000       2.026702        55.1494 
 595   0.0000       2.028558        55.1999 
 596   0.0000       2.031813        55.2884 
 597   0.0000       2.044097        55.6227 
 598   0.0000       2.051938        55.8361 
 599   0.0000       2.054209        55.8979 
 600   0.0000       2.064541        56.1790 
 601   0.0000       2.067529        56.2603 
 602   0.0000       2.070683        56.3462 
[...]
      pz      :     0.040025  p :     0.151173
      px      :     0.039271
      py      :     0.071877
 58 H s       :     0.937243  s :     0.937243
      pz      :     0.031574  p :     0.065420
      px      :     0.010134
      py      :     0.023712
 59 H s       :     0.915743  s :     0.915743
      pz      :     0.025929  p :     0.070724
      px      :     0.019819
      py      :     0.024976
 60 H s       :     0.924048  s :     0.924048
      pz      :     0.024317  p :     0.063809
      px      :     0.018753
      py      :     0.020739
 61 H s       :     0.913169  s :     0.913169
      pz      :     0.010641  p :     0.066471
      px      :     0.038658
      py      :     0.017171
 62 H s       :     0.930630  s :     0.930630
      pz      :     0.012523  p :     0.060942
      px      :     0.010536
      py      :     0.037883
 63 H s       :     0.908061  s :     0.908061
      pz      :     0.043387  p :     0.067463
      px      :     0.008837
      py      :     0.015239
 64 H s       :     0.913367  s :     0.913367
      pz      :     0.013795  p :     0.072481
      px      :     0.011256
      py      :     0.047429
 65 H s       :     0.908055  s :     0.908055
      pz      :     0.025657  p :     0.067622
      px      :     0.013091
      py      :     0.028874
 66 H s       :     0.884697  s :     0.884697
      pz      :     0.024352  p :     0.070308
      px      :     0.016649
      py      :     0.029307
 67 H s       :     0.905993  s :     0.905993
      pz      :     0.021120  p :     0.072597
      px      :     0.027138
      py      :     0.024339
 68 H s       :     0.895962  s :     0.895962
      pz      :     0.028604  p :     0.076073
      px      :     0.014140
      py      :     0.033329
 69 H s       :     0.931745  s :     0.931745
      pz      :     0.028994  p :     0.063125
      px      :     0.023668
      py      :     0.010463
 70 H s       :     0.915163  s :     0.915163
      pz      :     0.015304  p :     0.057941
      px      :     0.029136
      py      :     0.013501
 71 H s       :     0.934937  s :     0.934937
      pz      :     0.013787  p :     0.059391
      px      :     0.017025
      py      :     0.028579
 72 H s       :     0.718746  s :     0.718746
      pz      :     0.047999  p :     0.145570
      px      :     0.042894
      py      :     0.054676
 73 H s       :     0.932947  s :     0.932947
      pz      :     0.030285  p :     0.058496
      px      :     0.018169
      py      :     0.010042
 74 H s       :     0.922962  s :     0.922962
      pz      :     0.011943  p :     0.059603
      px      :     0.011717
      py      :     0.035943
 75 H s       :     0.927593  s :     0.927593
      pz      :     0.012570  p :     0.054730
      px      :     0.033335
      py      :     0.008825
 76 H s       :     0.748695  s :     0.748695
      pz      :     0.054357  p :     0.160772
      px      :     0.053265
      py      :     0.053149
 77 H s       :     0.726104  s :     0.726104
      pz      :     0.081353  p :     0.170301
      px      :     0.050127
      py      :     0.038822
 78 H s       :     0.743431  s :     0.743431
      pz      :     0.060713  p :     0.179633
      px      :     0.060594
      py      :     0.058326


                      *****************************
                      * MAYER POPULATION ANALYSIS *
                      *****************************

  NA   - Mulliken gross atomic population
  ZA   - Total nuclear charge
  QA   - Mulliken gross atomic charge
  VA   - Mayer's total valence
  BVA  - Mayer's bonded valence
  FA   - Mayer's free valence

  ATOM       NA         ZA         QA         VA         BVA        FA
  0 C      5.9316     6.0000     0.0684     3.9124     3.9124    -0.0000
  1 C      6.0888     6.0000    -0.0888     4.2957     4.2957    -0.0000
  2 C      5.9116     6.0000     0.0884     3.9049     3.9049     0.0000
  3 C      5.8297     6.0000     0.1703     3.9436     3.9436     0.0000
  4 C      5.8051     6.0000     0.1949     3.8723     3.8723     0.0000
  5 C      6.0934     6.0000    -0.0934     3.8689     3.8689     0.0000
  6 C      5.7807     6.0000     0.2193     3.9364     3.9364    -0.0000
  7 O      8.3317     8.0000    -0.3317     2.1669     2.1669     0.0000
  8 C      5.9548     6.0000     0.0452     4.0758     4.0758     0.0000
  9 C      5.8807     6.0000     0.1193     3.7875     3.7875     0.0000
 10 C      5.9050     6.0000     0.0950     3.7435     3.7435     0.0000
 11 C      6.1150     6.0000    -0.1150     3.6773     3.6773    -0.0000
 12 C      5.9571     6.0000     0.0429     3.6978     3.6978     0.0000
 13 C      6.0663     6.0000    -0.0663     3.7476     3.7476     0.0000
 14 C      5.8332     6.0000     0.1668     4.3563     4.3563     0.0000
 15 O      8.2393     8.0000    -0.2393     2.2567     2.2567     0.0000
 16 O      8.1087     8.0000    -0.1087     2.3546     2.3546    -0.0000
 17 O      8.2496     8.0000    -0.2496     2.2219     2.2219     0.0000
 18 O      8.2626     8.0000    -0.2626     2.1429     2.1429    -0.0000
 19 C      5.6699     6.0000     0.3301     4.1139     4.1139    -0.0000
 20 C      5.8159     6.0000     0.1841     3.9683     3.9683    -0.0000
 21 C      5.9322     6.0000     0.0678     4.0351     4.0351     0.0000
 22 C      5.8894     6.0000     0.1106     3.9825     3.9825     0.0000
 23 C      5.9086     6.0000     0.0914     4.0693     4.0693     0.0000
 24 O      8.2851     8.0000    -0.2851     2.1557     2.1557     0.0000
 25 C      5.7152     6.0000     0.2848     3.8544     3.8544    -0.0000
 26 O      8.2791     8.0000    -0.2791     2.2092     2.2092     0.0000
 27 C      5.7195     6.0000     0.2805     4.1596     4.1596    -0.0000
 28 O      8.3932     8.0000    -0.3932     2.1017     2.1017     0.0000
 29 C      6.0613     6.0000    -0.0613     3.7378     3.7378    -0.0000
 30 C      5.9694     6.0000     0.0306     3.8582     3.8582    -0.0000
 31 C      5.7635     6.0000     0.2365     3.5532     3.5532     0.0000
 32 C      6.2101     6.0000    -0.2101     3.7786     3.7786    -0.0000
 33 C      5.6932     6.0000     0.3068     3.8758     3.8758    -0.0000
 34 C      6.0194     6.0000    -0.0194     4.0673     4.0673    -0.0000
 35 C      5.7251     6.0000     0.2749     3.7480     3.7480     0.0000
 36 C      6.1774     6.0000    -0.1774     3.7453     3.7453    -0.0000
 37 O      8.3375     8.0000    -0.3375     2.1797     2.1797    -0.0000
 38 C      5.8409     6.0000     0.1591     3.9708     3.9708     0.0000
 39 O      8.3048     8.0000    -0.3048     2.1760     2.1760    -0.0000
 40 O      8.1836     8.0000    -0.1836     2.2936     2.2936     0.0000
 41 C      5.8307     6.0000     0.1693     3.9195     3.9195     0.0000
 42 O      8.3133     8.0000    -0.3133     2.0924     2.0924     0.0000
 43 O      8.2943     8.0000    -0.2943     2.1234     2.1234     0.0000
 44 O      8.2825     8.0000    -0.2825     2.1501     2.1501    -0.0000
 45 H      0.9993     1.0000     0.0007     1.0081     1.0081     0.0000
 46 H      1.0060     1.0000    -0.0060     0.9901     0.9901     0.0000
 47 H      0.9433     1.0000     0.0567     1.0186     1.0186    -0.0000
 48 H      0.9838     1.0000     0.0162     0.9901     0.9901    -0.0000
 49 H      0.9900     1.0000     0.0100     0.9988     0.9988     0.0000
 50 H      0.9709     1.0000     0.0291     1.0016     1.0016     0.0000
 51 H      1.0028     1.0000    -0.0028     1.0327     1.0327    -0.0000
 52 H      1.0146     1.0000    -0.0146     0.9843     0.9843     0.0000
 53 H      0.9880     1.0000     0.0120     0.9991     0.9991    -0.0000
 54 H      1.0544     1.0000    -0.0544     0.9947     0.9947    -0.0000
 55 H      1.0170     1.0000    -0.0170     0.9821     0.9821     0.0000
 56 H      1.0314     1.0000    -0.0314     1.0075     1.0075    -0.0000
 57 H      0.7784     1.0000     0.2216     0.9822     0.9822     0.0000
 58 H      1.0305     1.0000    -0.0305     1.0143     1.0143    -0.0000
 59 H      1.0061     1.0000    -0.0061     1.0075     1.0075     0.0000
 60 H      1.0145     1.0000    -0.0145     1.0235     1.0235     0.0000
 61 H      0.9775     1.0000     0.0225     1.0337     1.0337    -0.0000
 62 H      1.0217     1.0000    -0.0217     0.9936     0.9936     0.0000
 63 H      0.9708     1.0000     0.0292     0.9963     0.9963     0.0000
 64 H      0.9917     1.0000     0.0083     1.0349     1.0349    -0.0000
 65 H      1.0162     1.0000    -0.0162     0.9878     0.9878    -0.0000
 66 H      0.9845     1.0000     0.0155     1.0426     1.0426    -0.0000
 67 H      1.0460     1.0000    -0.0460     0.9979     0.9979    -0.0000
 68 H      1.0492     1.0000    -0.0492     1.0134     1.0134    -0.0000
 69 H      0.9882     1.0000     0.0118     0.9799     0.9799    -0.0000
 70 H      0.9736     1.0000     0.0264     0.9812     0.9812    -0.0000
 71 H      0.9939     1.0000     0.0061     0.9772     0.9772     0.0000
 72 H      0.7803     1.0000     0.2197     0.9903     0.9903    -0.0000
 73 H      0.9959     1.0000     0.0041     0.9738     0.9738    -0.0000
 74 H      0.9784     1.0000     0.0216     0.9760     0.9760     0.0000
 75 H      0.9795     1.0000     0.0205     0.9812     0.9812     0.0000
 76 H      0.8250     1.0000     0.1750     1.0203     1.0203    -0.0000
 77 H      0.8066     1.0000     0.1934     0.9950     0.9950     0.0000
 78 H      0.8297     1.0000     0.1703     1.0463     1.0463     0.0000

  Mayer bond orders larger than 0.100000
B(  0-C ,  1-C ) :   1.0445 B(  0-C , 45-H ) :   0.9481 B(  0-C , 46-H ) :   0.9505 
B(  0-C , 47-H ) :   0.9456 B(  1-C ,  2-C ) :   1.0691 B(  1-C ,  3-C ) :   0.9717 
B(  1-C , 18-O ) :   1.0062 B(  2-C , 48-H ) :   0.9487 B(  2-C , 49-H ) :   0.9364 
B(  2-C , 50-H ) :   0.9411 B(  3-C ,  4-C ) :   1.0728 B(  3-C ,  7-O ) :   0.9420 
B(  3-C , 51-H ) :   0.9016 B(  4-C ,  5-C ) :   1.0176 B(  4-C , 52-H ) :   0.8774 
B(  4-C , 53-H ) :   0.8954 B(  5-C ,  6-C ) :   1.4002 B(  5-C , 11-C ) :   1.2717 
B(  6-C ,  7-O ) :   1.0954 B(  6-C ,  8-C ) :   1.3267 B(  8-C ,  9-C ) :   1.3319 
B(  8-C , 17-O ) :   1.2724 B(  9-C , 10-C ) :   1.2179 B(  9-C , 16-O ) :   1.1282 
B( 10-C , 11-C ) :   1.2708 B( 10-C , 12-C ) :   1.1841 B( 11-C , 54-H ) :   1.0403 
B( 12-C , 13-C ) :   1.5388 B( 12-C , 55-H ) :   0.9619 B( 13-C , 14-C ) :   1.0592 
B( 13-C , 56-H ) :   1.0131 B( 14-C , 15-O ) :   2.0678 B( 14-C , 16-O ) :   1.1458 
B( 17-O , 57-H ) :   0.9131 B( 18-O , 19-C ) :   1.1002 B( 19-C , 20-C ) :   0.9703 
B( 19-C , 24-O ) :   0.9999 B( 19-C , 58-H ) :   0.9031 B( 20-C , 21-C ) :   1.0108 
B( 20-C , 44-O ) :   1.0837 B( 20-C , 59-H ) :   0.8819 B( 21-C , 22-C ) :   0.9553 
B( 21-C , 43-O ) :   1.0715 B( 21-C , 60-H ) :   0.8911 B( 22-C , 23-C ) :   1.0084 
B( 22-C , 42-O ) :   1.0859 B( 22-C , 61-H ) :   0.9027 B( 23-C , 24-O ) :   1.0547 
B( 23-C , 25-C ) :   0.9865 B( 23-C , 62-H ) :   0.9059 B( 25-C , 26-O ) :   0.8632 
B( 25-C , 63-H ) :   0.9411 B( 25-C , 64-H ) :   0.9432 B( 26-O , 27-C ) :   1.2125 
B( 27-C , 28-O ) :   1.8241 B( 27-C , 29-C ) :   1.0492 B( 29-C , 30-C ) :   1.7353 
B( 29-C , 65-H ) :   0.9427 B( 30-C , 31-C ) :   1.0504 B( 30-C , 66-H ) :   0.9755 
B( 31-C , 32-C ) :   1.2242 B( 31-C , 36-C ) :   1.2863 B( 32-C , 33-C ) :   1.4021 
B( 32-C , 67-H ) :   0.9940 B( 33-C , 34-C ) :   1.2192 B( 33-C , 40-O ) :   1.1368 
B( 34-C , 35-C ) :   1.4620 B( 34-C , 39-O ) :   1.2075 B( 35-C , 36-C ) :   1.2022 
B( 35-C , 37-O ) :   1.0352 B( 36-C , 68-H ) :   1.0252 B( 37-O , 38-C ) :   1.0300 
B( 38-C , 69-H ) :   0.9540 B( 38-C , 70-H ) :   0.9651 B( 38-C , 71-H ) :   0.9560 
B( 39-O , 72-H ) :   0.9148 B( 40-O , 41-C ) :   0.9941 B( 41-C , 73-H ) :   0.9613 
B( 41-C , 74-H ) :   0.9549 B( 41-C , 75-H ) :   0.9585 B( 42-O , 76-H ) :   0.9567 
B( 43-O , 77-H ) :   0.9540 B( 44-O , 78-H ) :   0.9421 

-------
TIMINGS
-------

Total SCF time: 0 days 0 hours 19 min 17 sec 

Total time                  ....    1157.387 sec
Sum of individual times     ....    1153.691 sec  ( 99.7%)

Fock matrix formation       ....    1108.672 sec  ( 95.8%)
  Split-RI-J                ....      71.379 sec  (  6.4% of F)
  Chain of spheres X        ....     994.593 sec  ( 89.7% of F)
  XC integration            ....      42.546 sec  (  3.8% of F)
    Basis function eval.    ....      13.634 sec  ( 32.0% of XC)
    Density eval.           ....      16.963 sec  ( 39.9% of XC)
    XC-Functional eval.     ....       2.454 sec  (  5.8% of XC)
    XC-Potential eval.      ....       7.365 sec  ( 17.3% of XC)
Diagonalization             ....       0.610 sec  (  0.1%)
Density matrix formation    ....       0.225 sec  (  0.0%)
Population analysis         ....       0.538 sec  (  0.0%)
Initial guess               ....       0.291 sec  (  0.0%)
Orbital Transformation      ....       0.000 sec  (  0.0%)
Orbital Orthonormalization  ....       0.254 sec  (  0.0%)
DIIS solution               ....       0.156 sec  (  0.0%)
SOSCF solution              ....       0.308 sec  (  0.0%)
Grid generation             ....      42.891 sec  (  3.7%)

Maximum memory used throughout the entire SCF-calculation: 339.6 MB

-------------------------   --------------------
FINAL SINGLE POINT ENERGY     -2251.650290367993
-------------------------   --------------------


                            ***************************************
                            *     ORCA property calculations      *
                            ***************************************

                                    ---------------------
                                    Active property flags
                                    ---------------------
   (+) Dipole Moment
   (+) Polarizability


------------------------------------------------------------------------------
                       ORCA ELECTRIC PROPERTIES CALCULATION
------------------------------------------------------------------------------

Dipole Moment Calculation                       ... on
Quadrupole Moment Calculation                   ... off
Polarizability Calculation                      ... Analytic (CP-SCF)
GBWName                                         ... 11.gbw
Electron density                                ... 11.scfp
The origin for moment calculation is the CENTER OF MASS  = ( 0.492745, -0.604331  0.078976)

-------------
DIPOLE MOMENT
-------------
                                X             Y             Z
Electronic contribution:     20.50720     -21.54773       2.12212
Nuclear contribution   :    -22.97943      24.21404      -3.78411
                        -----------------------------------------
Total Dipole Moment    :     -2.47223       2.66631      -1.66198
                        -----------------------------------------
Magnitude (a.u.)       :      3.99791
Magnitude (Debye)      :     10.16189



--------------------
Rotational spectrum 
--------------------
 
Rotational constants in cm-1:     0.006497     0.000531     0.000509 
Rotational constants in MHz :   194.762116    15.919717    15.258915 

 Dipole components along the rotational axes: 
x,y,z [a.u.] :    -2.756601    -2.809638    -0.700286 
x,y,z [Debye]:    -7.006722    -7.141533    -1.779985 

 
Transforming and storing MO dipole integrals   ... done

                ... starting polarizability calculation

The origin for moment calculation is the CENTER OF MASS  = ( 0.492745, -0.604331  0.078976)
Opening the Dipole integral file               ... (11.dmo.tmp) done
Reading Dipole-MO integrals                    ... done
Solving CP-SCF equations                       ... 
------------------------------------------------------------------------------
                           ORCA CP-SCF CALCULATION
------------------------------------------------------------------------------

Input orbitals are from        ... 11.gbw
Input Perturbation             ... 11.cpv.tmp
Wavefunction output            ... 11.cpu.tmp
Perturbation mode              ... Real perturbation (singlet)
Solver                         ... POPLE
Max. number of iterations      ... 64
Convergence tolerance          ... 1.000e-04
Integral handling              ... Direct
DFT GridXC                     ... 1
COSX GridX                     ... 1
COSX IntAccX                   ... 3.067
COSX Algorithm                 ... Auto
Number of perturbations        ... 3
Number of operators            ... 1
Orbital ranges used for CP-SCF:
 Operator 0:  Orbitals   0...165  to 166...799
Variables per perturbation     ... 105244
DFT calculation                         ... on
XC functional terms                     ... on
Exchange functional (SCF)               ... B88
Exchange functional (CP-SCF)            ... B88
   X-Alpha parameter    XAlpha (SCF)    ...  0.666667
   X-Alpha parameter    XAlpha (CP-SCF) ...  0.666667
   Becke's b parameter  XBeta (SCF)     ...  0.004200
   Becke's b parameter  XBeta (CP-SCF)  ...  0.004200
Correlation functional (SCF)            ... LYP
Correlation functional (CP-SCF)         ... LYP
 LDA part of GGA corr.  LDAOpt (SCF)    ... VWN-5
 LDA part of GGA corr.  LDAOpt (CP-SCF) ... VWN-5
Hybrid DFT                              ... on
   Exchange mixing (SCF)                ...  0.200
   Exchange mixing (CP-SCF)             ...  0.200
   GGA exch. scaling(SCF)               ...  0.720
   GGA exch. scaling (CP-SCF)           ...  0.720
   GGA corr. scaling (SCF)              ...  0.810
   GGA corr. scaling (CP-SCF)           ...  0.810

CP-SCF GRID
-----------

General Integration Accuracy     IntAcc      ... 3.467
Radial Grid Type                 RadialGrid  ... OptM3 with GC (2021)
Angular Grid (max. ang.)         AngularGrid ... 1 (Lebedev-50)
Angular grid pruning method      GridPruning ... 4 (adaptive)
Weight generation scheme         WeightScheme... Becke
Basis function cutoff            BFCut       ... 1.0000e-11
Integration weight cutoff        WCut        ... 1.0000e-14
Angular grids for H and He will be reduced by one unit
Partially contracted basis set               ... off
Rotationally invariant grid construction     ... off

Total number of grid points                  ...    54522
Total number of batches                      ...      891
Average number of points per batch           ...       61
Average number of grid points per atom       ...      690

CP-SCF GRIDX
------------

General Integration Accuracy     IntAcc      ... 3.067
Radial Grid Type                 RadialGrid  ... OptM3 with GC (2021)
Angular Grid (max. ang.)         AngularGrid ... 1 (Lebedev-50)
Angular grid pruning method      GridPruning ... 4 (adaptive)
Weight generation scheme         WeightScheme... Becke
Basis function cutoff            BFCut       ... 1.0000e-11
Integration weight cutoff        WCut        ... 1.0000e-14
Angular grids for H and He will be reduced by one unit
Partially contracted basis set               ... on
Rotationally invariant grid construction     ... off

Total number of grid points                  ...    25380
Total number of batches                      ...      444
Average number of points per batch           ...       57
Average number of grid points per atom       ...      321

Recalculating density on grid  ... done
Calculating the xc-kernel      ... done
Memory available               ... 846.2 MB
Memory needed per perturbation ... 129.6 MB
Perturbations treated per batch... 3
Number of batches              ... 1
     CP-SCF ITERATION   0:   2.5384e+01 ( 176.1 sec   0/  3 done)
     CP-SCF ITERATION   1:   2.2121e+00 ( 162.9 sec   0/  3 done)
     CP-SCF ITERATION   2:   1.0184e+00 ( 154.0 sec   0/  3 done)
     CP-SCF ITERATION   3:   3.4628e-01 ( 155.9 sec   0/  3 done)
     CP-SCF ITERATION   4:   1.2147e-01 ( 153.7 sec   0/  3 done)
     CP-SCF ITERATION   5: 
ORCA finished by error termination in CP-SCF
Calling Command: orca_cpscf 11.cpscf.tmp 
[file orca_tools/qcmsg.cpp, line 465]: 
  .... aborting the run

