
                                 *****************
                                 * O   R   C   A *
                                 *****************

                                            #,                                       
                                            ###                                      
                                            ####                                     
                                            #####                                    
                                            ######                                   
                                           ########,                                 
                                     ,,################,,,,,                         
                               ,,#################################,,                 
                          ,,##########################################,,             
                       ,#########################################, ''#####,          
                    ,#############################################,,   '####,        
                  ,##################################################,,,,####,       
                ,###########''''           ''''###############################       
              ,#####''   ,,,,##########,,,,          '''####'''          '####       
            ,##' ,,,,###########################,,,                        '##       
           ' ,,###''''                  '''############,,,                           
         ,,##''                                '''############,,,,        ,,,,,,###''
      ,#''                                            '''#######################'''  
     '                                                          ''''####''''         
             ,#######,   #######,   ,#######,      ##                                
            ,#'     '#,  ##    ##  ,#'     '#,    #''#        ######   ,####,        
            ##       ##  ##   ,#'  ##            #'  '#       #        #'  '#        
            ##       ##  #######   ##           ,######,      #####,   #    #        
            '#,     ,#'  ##    ##  '#,     ,#' ,#      #,         ##   #,  ,#        
             '#######'   ##     ##  '#######'  #'      '#     #####' # '####'        



                  #######################################################
                  #                        -***-                        #
                  #          Department of theory and spectroscopy      #
                  #    Directorship and core code : Frank Neese         #
                  #        Max Planck Institute fuer Kohlenforschung    #
                  #                Kaiser Wilhelm Platz 1               #
                  #                 D-45470 Muelheim/Ruhr               #
                  #                      Germany                        #
                  #                                                     #
                  #                  All rights reserved                #
                  #                        -***-                        #
                  #######################################################


                         Program Version 5.0.3 -  RELEASE  -


 With contributions from (in alphabetic order):
   Daniel Aravena         : Magnetic Suceptibility
   Michael Atanasov       : Ab Initio Ligand Field Theory (pilot matlab implementation)
   Alexander A. Auer      : GIAO ZORA, VPT2 properties, NMR spectrum
   Ute Becker             : Parallelization
   Giovanni Bistoni       : ED, misc. LED, open-shell LED, HFLD
   Martin Brehm           : Molecular dynamics
   Dmytro Bykov           : SCF Hessian
   Vijay G. Chilkuri      : MRCI spin determinant printing, contributions to CSF-ICE
   Dipayan Datta          : RHF DLPNO-CCSD density
   Achintya Kumar Dutta   : EOM-CC, STEOM-CC
   Dmitry Ganyushin       : Spin-Orbit,Spin-Spin,Magnetic field MRCI
   Miquel Garcia          : C-PCM and meta-GGA Hessian, CC/C-PCM, Gaussian charge scheme
   Yang Guo               : DLPNO-NEVPT2, F12-NEVPT2, CIM, IAO-localization
   Andreas Hansen         : Spin unrestricted coupled pair/coupled cluster methods
   Benjamin Helmich-Paris : MC-RPA, TRAH-SCF, COSX integrals
   Lee Huntington         : MR-EOM, pCC
   Robert Izsak           : Overlap fitted RIJCOSX, COSX-SCS-MP3, EOM
   Marcus Kettner         : VPT2
   Christian Kollmar      : KDIIS, OOCD, Brueckner-CCSD(T), CCSD density, CASPT2, CASPT2-K
   Simone Kossmann        : Meta GGA functionals, TD-DFT gradient, OOMP2, MP2 Hessian
   Martin Krupicka        : Initial AUTO-CI
   Lucas Lang             : DCDCAS
   Marvin Lechner         : AUTO-CI (C++ implementation), FIC-MRCC
   Dagmar Lenk            : GEPOL surface, SMD
   Dimitrios Liakos       : Extrapolation schemes; Compound Job, initial MDCI parallelization
   Dimitrios Manganas     : Further ROCIS development; embedding schemes
   Dimitrios Pantazis     : SARC Basis sets
   Anastasios Papadopoulos: AUTO-CI, single reference methods and gradients
   Taras Petrenko         : DFT Hessian,TD-DFT gradient, ASA, ECA, R-Raman, ABS, FL, XAS/XES, NRVS
   Peter Pinski           : DLPNO-MP2, DLPNO-MP2 Gradient
   Christoph Reimann      : Effective Core Potentials
   Marius Retegan         : Local ZFS, SOC
   Christoph Riplinger    : Optimizer, TS searches, QM/MM, DLPNO-CCSD(T), (RO)-DLPNO pert. Triples
   Tobias Risthaus        : Range-separated hybrids, TD-DFT gradient, RPA, STAB
   Michael Roemelt        : Original ROCIS implementation
   Masaaki Saitow         : Open-shell DLPNO-CCSD energy and density
   Barbara Sandhoefer     : DKH picture change effects
   Avijit Sen             : IP-ROCIS
   Kantharuban Sivalingam : CASSCF convergence, NEVPT2, FIC-MRCI
   Bernardo de Souza      : ESD, SOC TD-DFT
   Georgi Stoychev        : AutoAux, RI-MP2 NMR, DLPNO-MP2 response
   Willem Van den Heuvel  : Paramagnetic NMR
   Boris Wezisla          : Elementary symmetry handling
   Frank Wennmohs         : Technical directorship


 We gratefully acknowledge several colleagues who have allowed us to
 interface, adapt or use parts of their codes:
   Stefan Grimme, W. Hujo, H. Kruse, P. Pracht,  : VdW corrections, initial TS optimization,
                  C. Bannwarth, S. Ehlert          DFT functionals, gCP, sTDA/sTD-DF
   Ed Valeev, F. Pavosevic, A. Kumar             : LibInt (2-el integral package), F12 methods
   Garnet Chan, S. Sharma, J. Yang, R. Olivares  : DMRG
   Ulf Ekstrom                                   : XCFun DFT Library
   Mihaly Kallay                                 : mrcc  (arbitrary order and MRCC methods)
   Jiri Pittner, Ondrej Demel                    : Mk-CCSD
   Frank Weinhold                                : gennbo (NPA and NBO analysis)
   Christopher J. Cramer and Donald G. Truhlar   : smd solvation model
   Lars Goerigk                                  : TD-DFT with DH, B97 family of functionals
   V. Asgeirsson, H. Jonsson                     : NEB implementation
   FAccTs GmbH                                   : IRC, NEB, NEB-TS, DLPNO-Multilevel, CI-OPT
                                                   MM, QMMM, 2- and 3-layer-ONIOM, Crystal-QMMM,
                                                   LR-CPCM, SF, NACMEs, symmetry and pop. for TD-DFT,
                                                   nearIR, NL-DFT gradient (VV10), updates on ESD,
                                                   ML-optimized integration grids
   S Lehtola, MJT Oliveira, MAL Marques          : LibXC Library
   Liviu Ungur et al                             : ANISO software


 Your calculation uses the libint2 library for the computation of 2-el integrals
 For citations please refer to: http://libint.valeyev.net

 Your ORCA version has been built with support for libXC version: 5.1.0
 For citations please refer to: https://tddft.org/programs/libxc/

 This ORCA versions uses:
   CBLAS   interface :  Fast vector & matrix operations
   LAPACKE interface :  Fast linear algebra routines
   SCALAPACK package :  Parallel linear algebra routines
   Shared memory     :  Shared parallel matrices
   BLAS/LAPACK       :  OpenBLAS 0.3.15  USE64BITINT DYNAMIC_ARCH NO_AFFINITY Zen SINGLE_THREADED
        Core in use  :  Zen
   Copyright (c) 2011-2014, The OpenBLAS Project




***************************************
The coordinates will be read from file: _60.xyz
***************************************


================================================================================

----- Orbital basis set information -----
Your calculation utilizes the basis: def2-SVP
   F. Weigend and R. Ahlrichs, Phys. Chem. Chem. Phys. 7, 3297 (2005).

----- AuxJ basis set information -----
Your calculation utilizes the auxiliary basis: def2/J
   F. Weigend, Phys. Chem. Chem. Phys. 8, 1057 (2006).

================================================================================
                                        WARNINGS
                       Please study these warnings very carefully!
================================================================================

WARNING: Old DensityContainer found on disk!
         Will remove this file - 
         If you want to keep old densities, please start your calculation with a different basename. 


INFO   : the flag for use of the SHARK integral package has been found!

================================================================================
                                       INPUT FILE
================================================================================
NAME = 60.inp
|  1> ! B3LYP DEF2-SVP TightSCF
|  2> %elprop
|  3> Polar 1
|  4> end
|  5> * xyzfile 0 1 _60.xyz
|  6> 
|  7>                          ****END OF INPUT****
================================================================================

                       ****************************
                       * Single Point Calculation *
                       ****************************

---------------------------------
CARTESIAN COORDINATES (ANGSTROEM)
---------------------------------
  C     -4.315752   -0.953609    0.444242
  C     -3.247173    0.100292    0.750590
  C     -2.151529   -0.413415    1.568826
  O     -2.354265   -0.565512    2.811996
  N     -0.867710   -0.743330    0.994161
  C     -0.676577   -0.747597   -0.420491
  C     -1.784709   -0.156598   -1.189106
  O     -1.807061   -0.313006   -2.430168
  N     -2.799948    0.569364   -0.542045
  O     -3.372527    1.675916   -1.096539
  C     -3.041444    2.830806   -0.395816
  C      0.528788    0.112831   -0.737659
  C      1.789041   -0.343603   -0.160183
  C      2.178960   -1.466430    0.496818
  N      3.490162   -1.366253    0.797121
  C      3.963962   -0.193021    0.344964
  C      5.222848    0.392302    0.386231
  C      5.450877    1.635878   -0.173613
  C      4.413592    2.323828   -0.789923
  C      3.180858    1.711264   -0.809931
  C      2.930830    0.467731   -0.256669
  O     -0.339589   -2.023111   -0.900984
  C     -1.291758   -2.985748   -0.641965
  H     -4.322142   -1.749422    1.183655
  H     -4.147646   -1.425304   -0.545083
  H     -5.326843   -0.470374    0.353073
  H     -3.812666    0.927742    1.273340
  H     -0.110754   -0.967061    1.657957
  H     -2.897299    2.661862    0.673001
  H     -3.824518    3.612413   -0.535331
  H     -2.080437    3.290848   -0.762296
  H      0.333850    1.169445   -0.429101
  H      0.659962    0.134880   -1.853322
  H      1.565890   -2.301117    0.735993
  H      4.050723   -2.092146    1.306374
  H      6.035304   -0.117711    0.854445
  H      6.405264    2.122786   -0.165384
  H      4.572177    3.307060   -1.236914
  H      2.369668    2.267687   -1.300975
  H     -2.265059   -2.752256   -1.098423
  H     -0.946543   -3.914597   -1.156235
  H     -1.358805   -3.253715    0.431387

----------------------------
CARTESIAN COORDINATES (A.U.)
----------------------------
  NO LB      ZA    FRAG     MASS         X           Y           Z
   0 C     6.0000    0    12.011   -8.155589   -1.802060    0.839496
   1 C     6.0000    0    12.011   -6.136268    0.189524    1.418410
   2 C     6.0000    0    12.011   -4.065801   -0.781241    2.964651
   3 O     8.0000    0    15.999   -4.448916   -1.068663    5.313902
   4 N     7.0000    0    14.007   -1.639734   -1.404690    1.878692
   5 C     6.0000    0    12.011   -1.278545   -1.412754   -0.794613
   6 C     6.0000    0    12.011   -3.372611   -0.295927   -2.247085
   7 O     8.0000    0    15.999   -3.414850   -0.591496   -4.592352
   8 N     7.0000    0    14.007   -5.291135    1.075942   -1.024317
   9 O     8.0000    0    15.999   -6.373152    3.167022   -2.072158
  10 C     6.0000    0    12.011   -5.747496    5.349448   -0.747984
  11 C     6.0000    0    12.011    0.999265    0.213220   -1.393973
  12 C     6.0000    0    12.011    3.380798   -0.649316   -0.302702
  13 C     6.0000    0    12.011    4.117638   -2.771151    0.938850
  14 N     7.0000    0    14.007    6.595450   -2.581844    1.506340
  15 C     6.0000    0    12.011    7.490803   -0.364757    0.651887
  16 C     6.0000    0    12.011    9.869752    0.741343    0.729871
  17 C     6.0000    0    12.011   10.300665    3.091361   -0.328081
  18 C     6.0000    0    12.011    8.340480    4.391399   -1.492738
  19 C     6.0000    0    12.011    6.010950    3.233820   -1.530548
  20 C     6.0000    0    12.011    5.538466    0.883883   -0.485034
  21 O     8.0000    0    15.999   -0.641730   -3.823126   -1.702613
  22 C     6.0000    0    12.011   -2.441069   -5.642246   -1.213138
  23 H     1.0000    0     1.008   -8.167665   -3.305928    2.236784
  24 H     1.0000    0     1.008   -7.837915   -2.693434   -1.030058
  25 H     1.0000    0     1.008  -10.066274   -0.888878    0.667211
  26 H     1.0000    0     1.008   -7.204895    1.753178    2.406264
  27 H     1.0000    0     1.008   -0.209295   -1.827480    3.133085
  28 H     1.0000    0     1.008   -5.475102    5.030190    1.271788
  29 H     1.0000    0     1.008   -7.227292    6.826471   -1.011629
  30 H     1.0000    0     1.008   -3.931456    6.218801   -1.440531
  31 H     1.0000    0     1.008    0.630885    2.209931   -0.810883
  32 H     1.0000    0     1.008    1.247147    0.254886   -3.502271
  33 H     1.0000    0     1.008    2.959103   -4.348481    1.390825
  34 H     1.0000    0     1.008    7.654757   -3.953583    2.468689
  35 H     1.0000    0     1.008   11.405072   -0.222442    1.614667
  36 H     1.0000    0     1.008   12.104195    4.011484   -0.312530
  37 H     1.0000    0     1.008    8.640162    6.249438   -2.337429
  38 H     1.0000    0     1.008    4.478024    4.285307   -2.458486
  39 H     1.0000    0     1.008   -4.280341   -5.201010   -2.075719
  40 H     1.0000    0     1.008   -1.788707   -7.397516   -2.184967
  41 H     1.0000    0     1.008   -2.567769   -6.148630    0.815203

--------------------------------
INTERNAL COORDINATES (ANGSTROEM)
--------------------------------
 C      0   0   0     0.000000000000     0.00000000     0.00000000
 C      1   0   0     1.531802041436     0.00000000     0.00000000
 C      2   1   0     1.460767198523   113.15999992     0.00000000
 O      3   2   1     1.268742303230   118.10944342   283.06294101
 N      3   2   1     1.444740459117   121.60131769   103.07421798
 C      5   3   2     1.427511930627   120.92006045   351.62106764
 C      6   5   3     1.472414807603   114.54077440    10.93926824
 O      7   6   5     1.251078719431   118.75703054   191.58815194
 N      7   6   5     1.405851695694   120.69673642    11.54485639
 O      9   7   6     1.363732978255   122.34824158   143.08068424
 C     10   9   7     1.390826943842   111.65199329   248.21978314
 C      6   5   3     1.514541734860   108.20333617   127.86876200
 C     12   6   5     1.459468448080   115.25804698    61.58250336
 C     13  12   6     1.358097055623   134.25827284     8.68987694
 N     14  13  12     1.348876572538   108.98910008   179.20554750
 C     15  14  13     1.343653868551   109.43277218   359.97443363
 C     16  15  14     1.388920422708   132.65489601   180.28660818
 C     17  16  15     1.382716094125   121.09511481   179.61834572
 C     18  17  16     1.388910864608   120.13064335     0.05452164
 C     19  18  17     1.376687360629   117.05182902     0.00000000
 C     16  15  14     1.365985798468   107.69095827     0.00000000
 O      6   5   3     1.404054984461   111.96166853   242.71920571
 C     22   6   5     1.378545117394   113.84683177    59.71381869
 H      1   2   3     1.086319818303   111.83903882    23.81081870
 H      1   2   3     1.108837118736   111.42945449   263.77759176
 H      1   2   3     1.124336632004   110.35550088   148.40952171
 H      2   1   3     1.130364276704   104.30828015   238.09738484
 H      5   3   2     1.031340426781   116.47005784   171.34427630
 H     11  10   9     1.091645379988   113.34126577   328.20265680
 H     11  10   9     1.115158655596   110.59772763   205.60134175
 H     11  10   9     1.126712335165   112.22251617    87.72855788
 H     12   6   5     1.117873878487   109.90067814   297.03800564
 H     12   6   5     1.123564286655   108.18019125   181.71549600
 H     14  13  12     1.062902579494   126.33516863   359.69905488
 H     15  14  13     1.049041419668   125.17788344   179.86878530
 H     17  16  15     1.067437287104   120.10251988   359.68126924
 H     18  17  16     1.071448394779   123.53843186   180.08549165
 H     19  18  17     1.091647984531   121.28699197   179.92674732
 H     20  19  18     1.099436210503   116.22984006   179.99452661
 H     23  22   6     1.100085113266   112.63918312    60.25701065
 H     23  22   6     1.116426215173   106.31075614   174.74295048
 H     23  22   6     1.108325822672   113.11511270   289.80485665

---------------------------
INTERNAL COORDINATES (A.U.)
---------------------------
 C      0   0   0     0.000000000000     0.00000000     0.00000000
 C      1   0   0     2.894686349695     0.00000000     0.00000000
 C      2   1   0     2.760449950624   113.15999992     0.00000000
 O      3   2   1     2.397575487625   118.10944342   283.06294101
 N      3   2   1     2.730163802328   121.60131769   103.07421798
 C      5   3   2     2.697606601790   120.92006045   351.62106764
 C      6   5   3     2.782460741901   114.54077440    10.93926824
 O      7   6   5     2.364196151701   118.75703054   191.58815194
 N      7   6   5     2.656674689771   120.69673642    11.54485639
 O      9   7   6     2.577081848699   122.34824158   143.08068424
 C     10   9   7     2.628282023541   111.65199329   248.21978314
 C      6   5   3     2.862069097280   108.20333617   127.86876200
 C     12   6   5     2.757995667970   115.25804698    61.58250336
 C     13  12   6     2.566431498412   134.25827284     8.68987694
 N     14  13  12     2.549007310559   108.98910008   179.20554750
 C     15  14  13     2.539137830346   109.43277218   359.97443363
 C     16  15  14     2.624679220727   132.65489601   180.28660818
 C     17  16  15     2.612954738862   121.09511481   179.61834572
 C     18  17  16     2.624661158536   120.13064335     0.05452164
 C     19  18  17     2.601562083620   117.05182902     0.00000000
 C     16  15  14     2.581339061931   107.69095827     0.00000000
 O      6   5   3     2.653279397598   111.96166853   242.71920571
 C     22   6   5     2.605072735129   113.84683177    59.71381869
 H      1   2   3     2.052846950444   111.83903882    23.81081870
 H      1   2   3     2.095398481537   111.42945449   263.77759176
 H      1   2   3     2.124688316824   110.35550088   148.40952171
 H      2   1   3     2.136078914539   104.30828015   238.09738484
 H      5   3   2     1.948950957458   116.47005784   171.34427630
 H     11  10   9     2.062910803538   113.34126577   328.20265680
 H     11  10   9     2.107344454948   110.59772763   205.60134175
 H     11  10   9     2.129177745173   112.22251617    87.72855788
 H     12   6   5     2.112475482605   109.90067814   297.03800564
 H     12   6   5     2.123228795632   108.18019125   181.71549600
 H     14  13  12     2.008594782281   126.33516863   359.69905488
 H     15  14  13     1.982400986312   125.17788344   179.86878530
 H     17  16  15     2.017164137763   120.10251988   359.68126924
 H     18  17  16     2.024744032761   123.53843186   180.08549165
 H     19  18  17     2.062915725410   121.28699197   179.92674732
 H     20  19  18     2.077633339567   116.22984006   179.99452661
 H     23  22   6     2.078859588076   112.63918312    60.25701065
 H     23  22   6     2.109739795408   106.31075614   174.74295048
 H     23  22   6     2.094432272003   113.11511270   289.80485665

---------------------
BASIS SET INFORMATION
---------------------
There are 4 groups of distinct atoms

 Group   1 Type C   : 7s4p1d contracted to 3s2p1d pattern {511/31/1}
 Group   2 Type O   : 7s4p1d contracted to 3s2p1d pattern {511/31/1}
 Group   3 Type N   : 7s4p1d contracted to 3s2p1d pattern {511/31/1}
 Group   4 Type H   : 4s1p contracted to 2s1p pattern {31/1}

Atom   0C    basis set group =>   1
Atom   1C    basis set group =>   1
Atom   2C    basis set group =>   1
Atom   3O    basis set group =>   2
Atom   4N    basis set group =>   3
Atom   5C    basis set group =>   1
Atom   6C    basis set group =>   1
Atom   7O    basis set group =>   2
Atom   8N    basis set group =>   3
Atom   9O    basis set group =>   2
Atom  10C    basis set group =>   1
Atom  11C    basis set group =>   1
Atom  12C    basis set group =>   1
Atom  13C    basis set group =>   1
Atom  14N    basis set group =>   3
Atom  15C    basis set group =>   1
Atom  16C    basis set group =>   1
Atom  17C    basis set group =>   1
Atom  18C    basis set group =>   1
Atom  19C    basis set group =>   1
Atom  20C    basis set group =>   1
Atom  21O    basis set group =>   2
Atom  22C    basis set group =>   1
Atom  23H    basis set group =>   4
Atom  24H    basis set group =>   4
Atom  25H    basis set group =>   4
Atom  26H    basis set group =>   4
Atom  27H    basis set group =>   4
Atom  28H    basis set group =>   4
Atom  29H    basis set group =>   4
Atom  30H    basis set group =>   4
Atom  31H    basis set group =>   4
Atom  32H    basis set group =>   4
Atom  33H    basis set group =>   4
Atom  34H    basis set group =>   4
Atom  35H    basis set group =>   4
Atom  36H    basis set group =>   4
Atom  37H    basis set group =>   4
Atom  38H    basis set group =>   4
Atom  39H    basis set group =>   4
Atom  40H    basis set group =>   4
Atom  41H    basis set group =>   4
---------------------------------
AUXILIARY/J BASIS SET INFORMATION
---------------------------------
There are 4 groups of distinct atoms

 Group   1 Type C   : 12s5p4d2f1g contracted to 6s4p3d1f1g pattern {711111/2111/211/2/1}
 Group   2 Type O   : 12s5p4d2f1g contracted to 6s4p3d1f1g pattern {711111/2111/211/2/1}
 Group   3 Type N   : 12s5p4d2f1g contracted to 6s4p3d1f1g pattern {711111/2111/211/2/1}
 Group   4 Type H   : 5s2p1d contracted to 3s1p1d pattern {311/2/1}

Atom   0C    basis set group =>   1
Atom   1C    basis set group =>   1
Atom   2C    basis set group =>   1
Atom   3O    basis set group =>   2
Atom   4N    basis set group =>   3
Atom   5C    basis set group =>   1
Atom   6C    basis set group =>   1
Atom   7O    basis set group =>   2
Atom   8N    basis set group =>   3
Atom   9O    basis set group =>   2
Atom  10C    basis set group =>   1
Atom  11C    basis set group =>   1
Atom  12C    basis set group =>   1
Atom  13C    basis set group =>   1
Atom  14N    basis set group =>   3
Atom  15C    basis set group =>   1
Atom  16C    basis set group =>   1
Atom  17C    basis set group =>   1
Atom  18C    basis set group =>   1
Atom  19C    basis set group =>   1
Atom  20C    basis set group =>   1
Atom  21O    basis set group =>   2
Atom  22C    basis set group =>   1
Atom  23H    basis set group =>   4
Atom  24H    basis set group =>   4
Atom  25H    basis set group =>   4
Atom  26H    basis set group =>   4
Atom  27H    basis set group =>   4
Atom  28H    basis set group =>   4
Atom  29H    basis set group =>   4
Atom  30H    basis set group =>   4
Atom  31H    basis set group =>   4
Atom  32H    basis set group =>   4
Atom  33H    basis set group =>   4
Atom  34H    basis set group =>   4
Atom  35H    basis set group =>   4
Atom  36H    basis set group =>   4
Atom  37H    basis set group =>   4
Atom  38H    basis set group =>   4
Atom  39H    basis set group =>   4
Atom  40H    basis set group =>   4
Atom  41H    basis set group =>   4

Checking for AutoStart:
The File: 60.gbw exists
Trying to determine its content:
     ... Fine, the file contains calculation information
     ... Fine, the calculation information was read
     ... Fine, the file contains a basis set
     ... Fine, the basis set was read
     ... Fine, the file contains a geometry
     ... Fine, the geometry was read
     ... Fine, the file contains a set of orbitals
     ... Fine, the orbitals can be read
     => possible old guess file was deleted
     => GBW file was renamed to GES file
     => GES file is set as startup file
     => Guess is set to MORead
     ... now leaving AutoStart

------------------------------------------------------------------------------
                           ORCA GTO INTEGRAL CALCULATION
                           -- RI-GTO INTEGRALS CHOSEN --
------------------------------------------------------------------------------
------------------------------------------------------------------------------
                   ___                                                        
                  /   \      - P O W E R E D   B Y -                         
                 /     \                                                     
                 |  |  |   _    _      __       _____    __    __             
                 |  |  |  | |  | |    /  \     |  _  \  |  |  /  |          
                  \  \/   | |  | |   /    \    | | | |  |  | /  /          
                 / \  \   | |__| |  /  /\  \   | |_| |  |  |/  /          
                |  |  |   |  __  | /  /__\  \  |    /   |      \           
                |  |  |   | |  | | |   __   |  |    \   |  |\   \          
                \     /   | |  | | |  |  |  |  | |\  \  |  | \   \       
                 \___/    |_|  |_| |__|  |__|  |_| \__\ |__|  \__/        
                                                                              
                      - O R C A' S   B I G   F R I E N D -                    
                                      &                                       
                       - I N T E G R A L  F E E D E R -                       
                                                                              
 v1 FN, 2020, v2 2021                                                         
------------------------------------------------------------------------------


Reading SHARK input file 60.SHARKINP.tmp ... ok
----------------------
SHARK INTEGRAL PACKAGE
----------------------

Number of atoms                             ...     42
Number of basis functions                   ...    417
Number of shells                            ...    195
Maximum angular momentum                    ...      2
Integral batch strategy                     ... SHARK/LIBINT Hybrid
RI-J (if used) integral strategy            ... SPLIT-RIJ (Revised 2003 algorithm where possible)
Printlevel                                  ...      1
Contraction scheme used                     ... SEGMENTED contraction
Coulomb Range Separation                    ... NOT USED
Exchange Range Separation                   ... NOT USED
Finite Nucleus Model                        ... NOT USED
Auxiliary Coulomb fitting basis             ... AVAILABLE
   # of basis functions in Aux-J            ...   1336
   # of shells in Aux-J                     ...    440
   Maximum angular momentum in Aux-J        ...      4
Auxiliary J/K fitting basis                 ... NOT available
Auxiliary Correlation fitting basis         ... NOT available
Auxiliary 'external' fitting basis          ... NOT available
Integral threshold                          ...     2.500000e-11
Primitive cut-off                           ...     2.500000e-12
Primitive pair pre-selection threshold      ...     2.500000e-12

Calculating pre-screening integrals         ... done (  0.1 sec) Dimension = 195
Organizing shell pair data                  ... done (  0.2 sec)
Shell pair information
Total number of shell pairs                 ...     19110
Shell pairs after pre-screening             ...     14038
Total number of primitive shell pairs       ...     69362
Primitive shell pairs kept                  ...     32467
          la=0 lb=0:   4351 shell pairs
          la=1 lb=0:   5220 shell pairs
          la=1 lb=1:   1607 shell pairs
          la=2 lb=0:   1673 shell pairs
          la=2 lb=1:   1020 shell pairs
          la=2 lb=2:    167 shell pairs

Calculating one electron integrals          ... done (  0.2 sec)
Calculating RI/J V-Matrix + Cholesky decomp.... done (  0.3 sec)
Calculating Nuclear repulsion               ... done (  0.0 sec) ENN=   2029.725805101717 Eh

SHARK setup successfully completed in   1.4 seconds

Maximum memory used throughout the entire GTOINT-calculation: 87.2 MB
-------------------------------------------------------------------------------
                                 ORCA SCF
-------------------------------------------------------------------------------

------------
SCF SETTINGS
------------
Hamiltonian:
 Density Functional     Method          .... DFT(GTOs)
 Exchange Functional    Exchange        .... B88
   X-Alpha parameter    XAlpha          ....  0.666667
   Becke's b parameter  XBeta           ....  0.004200
 Correlation Functional Correlation     .... LYP
 LDA part of GGA corr.  LDAOpt          .... VWN-5
 Gradients option       PostSCFGGA      .... off
 Hybrid DFT is turned on
   Fraction HF Exchange ScalHFX         ....  0.200000
   Scaling of DF-GGA-X  ScalDFX         ....  0.720000
   Scaling of DF-GGA-C  ScalDFC         ....  0.810000
   Scaling of DF-LDA-C  ScalLDAC        ....  1.000000
   Perturbative correction              ....  0.000000
   Density functional embedding theory  .... OFF
   NL short-range parameter             ....  4.800000
 RI-approximation to the Coulomb term is turned on
   Number of AuxJ basis functions       .... 1336
   RIJ-COSX (HFX calculated with COS-X)).... on


General Settings:
 Integral files         IntName         .... 60
 Hartree-Fock type      HFTyp           .... RHF
 Total Charge           Charge          ....    0
 Multiplicity           Mult            ....    1
 Number of Electrons    NEL             ....  168
 Basis Dimension        Dim             ....  417
 Nuclear Repulsion      ENuc            ....   2029.7258051017 Eh

Convergence Acceleration:
 DIIS                   CNVDIIS         .... on
   Start iteration      DIISMaxIt       ....    12
   Startup error        DIISStart       ....  0.200000
   # of expansion vecs  DIISMaxEq       ....     5
   Bias factor          DIISBfac        ....   1.050
   Max. coefficient     DIISMaxC        ....  10.000
 Trust-Rad. Augm. Hess. CNVTRAH         .... auto
   Auto Start mean grad. ratio tolernc. ....  1.125000
   Auto Start start iteration           ....     1
   Auto Start num. interpolation iter.  ....    10
   Max. Number of Micro iterations      ....    16
   Max. Number of Macro iterations      .... Maxiter - #DIIS iter
   Number of Davidson start vectors     ....     2
   Converg. threshold I  (grad. norm)   ....   1.000e-05
   Converg. threshold II (energy diff.) ....   1.000e-08
   Grad. Scal. Fac. for Micro threshold ....   0.100
   Minimum threshold for Micro iter.    ....   0.010
   NR start threshold (gradient norm)   ....   0.001
   Initial trust radius                 ....   0.400
   Minimum AH scaling param. (alpha)    ....   1.000
   Maximum AH scaling param. (alpha)    .... 1000.000
   Orbital update algorithm             .... Taylor
   White noise on init. David. guess    .... on
   Maximum white noise                  ....   0.010
   Quad. conv. algorithm                .... NR
 SOSCF                  CNVSOSCF        .... on
   Start iteration      SOSCFMaxIt      ....   150
   Startup grad/error   SOSCFStart      ....  0.003300
 Level Shifting         CNVShift        .... on
   Level shift para.    LevelShift      ....    0.2500
   Turn off err/grad.   ShiftErr        ....    0.0010
 Zerner damping         CNVZerner       .... off
 Static damping         CNVDamp         .... on
   Fraction old density DampFac         ....    0.7000
   Max. Damping (<1)    DampMax         ....    0.9800
   Min. Damping (>=0)   DampMin         ....    0.0000
   Turn off err/grad.   DampErr         ....    0.1000
 Fernandez-Rico         CNVRico         .... off

SCF Procedure:
 Maximum # iterations   MaxIter         ....   125
 SCF integral mode      SCFMode         .... Direct
   Integral package                     .... SHARK and LIBINT hybrid scheme
 Reset frequency        DirectResetFreq ....    20
 Integral Threshold     Thresh          ....  2.500e-11 Eh
 Primitive CutOff       TCut            ....  2.500e-12 Eh

Convergence Tolerance:
 Convergence Check Mode ConvCheckMode   .... Total+1el-Energy
 Convergence forced     ConvForced      .... 0
 Energy Change          TolE            ....  1.000e-08 Eh
 1-El. energy change                    ....  1.000e-05 Eh
 Orbital Gradient       TolG            ....  1.000e-05
 Orbital Rotation angle TolX            ....  1.000e-05
 DIIS Error             TolErr          ....  5.000e-07


Diagonalization of the overlap matrix:
Smallest eigenvalue                        ... 2.174e-04
Time for diagonalization                   ...    0.048 sec
Threshold for overlap eigenvalues          ... 1.000e-08
Number of eigenvalues below threshold      ... 0
Time for construction of square roots      ...    0.025 sec
Total time needed                          ...    0.074 sec

---------------------
INITIAL GUESS: MOREAD
---------------------
Guess MOs are being read from file: 60.ges
Input Geometry matches current geometry (good)
Input basis set matches current basis set (good)
MOs were renormalized
MOs were reorthogonalized (Cholesky)
                      ------------------
                      INITIAL GUESS DONE (   0.1 sec)
                      ------------------
-------------------
DFT GRID GENERATION
-------------------

General Integration Accuracy     IntAcc      ... 4.388
Radial Grid Type                 RadialGrid  ... OptM3 with GC (2021)
Angular Grid (max. ang.)         AngularGrid ... 4 (Lebedev-302)
Angular grid pruning method      GridPruning ... 4 (adaptive)
Weight generation scheme         WeightScheme... Becke
Basis function cutoff            BFCut       ... 1.0000e-11
Integration weight cutoff        WCut        ... 1.0000e-14
Angular grids for H and He will be reduced by one unit
Partially contracted basis set               ... off
Rotationally invariant grid construction     ... off

Total number of grid points                  ...   197551
Total number of batches                      ...     3111
Average number of points per batch           ...       63
Average number of grid points per atom       ...     4704
Time for grid setup =   10.156 sec

--------------------
COSX GRID GENERATION
--------------------

GRIDX 1
-------
General Integration Accuracy     IntAcc      ... 3.816
Radial Grid Type                 RadialGrid  ... OptM3 with GC (2021)
Angular Grid (max. ang.)         AngularGrid ... 1 (Lebedev-50)
Angular grid pruning method      GridPruning ... 4 (adaptive)
Weight generation scheme         WeightScheme... Becke
Basis function cutoff            BFCut       ... 1.0000e-11
Integration weight cutoff        WCut        ... 1.0000e-14
Angular grids for H and He will be reduced by one unit
Partially contracted basis set               ... on
Rotationally invariant grid construction     ... off

Total number of grid points                  ...    25085
Total number of batches                      ...      414
Average number of points per batch           ...       60
Average number of grid points per atom       ...      597
UseSFitting                                  ... on

GRIDX 2
-------
General Integration Accuracy     IntAcc      ... 4.020
Radial Grid Type                 RadialGrid  ... OptM3 with GC (2021)
Angular Grid (max. ang.)         AngularGrid ... 2 (Lebedev-110)
Angular grid pruning method      GridPruning ... 4 (adaptive)
Weight generation scheme         WeightScheme... Becke
Basis function cutoff            BFCut       ... 1.0000e-11
Integration weight cutoff        WCut        ... 1.0000e-14
Angular grids for H and He will be reduced by one unit
Partially contracted basis set               ... on
Rotationally invariant grid construction     ... off

Total number of grid points                  ...    54134
Total number of batches                      ...      867
Average number of points per batch           ...       62
Average number of grid points per atom       ...     1289
UseSFitting                                  ... on

GRIDX 3
-------
General Integration Accuracy     IntAcc      ... 4.338
Radial Grid Type                 RadialGrid  ... OptM3 with GC (2021)
Angular Grid (max. ang.)         AngularGrid ... 3 (Lebedev-194)
Angular grid pruning method      GridPruning ... 4 (adaptive)
Weight generation scheme         WeightScheme... Becke
Basis function cutoff            BFCut       ... 1.0000e-11
Integration weight cutoff        WCut        ... 1.0000e-14
Angular grids for H and He will be reduced by one unit
Partially contracted basis set               ... on
Rotationally invariant grid construction     ... off

Total number of grid points                  ...   118200
Total number of batches                      ...     1866
Average number of points per batch           ...       63
Average number of grid points per atom       ...     2814
UseSFitting                                  ... on

Time for X-Grid setup             =   13.124 sec

--------------
SCF ITERATIONS
--------------
ITER       Energy         Delta-E        Max-DP      RMS-DP      [F,P]     Damp
               ***  Starting incremental Fock matrix formation  ***
                      *** Initiating the SOSCF procedure ***
                      *** Re-Reading the Fockian *** 
                      *** Removing any level shift *** 
ITER      Energy       Delta-E        Grad      Rot      Max-DP    RMS-DP
  0  -1084.75823955 -1084.7582395471  0.000001  0.000001  0.000010  0.000000
               *** Restarting incremental Fock matrix formation ***
                  ***Gradient check signals convergence***
              ***Rediagonalizing the Fockian in SOSCF/NRSCF***

               *****************************************************
               *                     SUCCESS                       *
               *           SCF CONVERGED AFTER   1 CYCLES          *
               *****************************************************

Old exchange energy                            =    -28.483820166 Eh
New exchange energy                            =    -28.483903433 Eh
Exchange energy change after final integration =     -0.000083267 Eh
Total energy after final integration           =  -1084.758322814 Eh
Final COS-X integration done in                =   151.996 sec

----------------
TOTAL SCF ENERGY
----------------

Total Energy       :        -1084.75832281 Eh          -29517.77462 eV

Components:
Nuclear Repulsion  :         2029.72580510 Eh           55231.64708 eV
Electronic Energy  :        -3114.48412792 Eh          -84749.42170 eV
One Electron Energy:        -5511.08852534 Eh         -149964.34281 eV
Two Electron Energy:         2396.60439742 Eh           65214.92112 eV
Max COSX asymmetry :            0.00000627 Eh               0.00017 eV

Virial components:
Potential Energy   :        -2160.12697764 Eh          -58780.04338 eV
Kinetic Energy     :         1075.36865482 Eh           29262.26876 eV
Virial Ratio       :            2.00873158


DFT components:
N(Alpha)           :       84.000085199980 electrons
N(Beta)            :       84.000085199980 electrons
N(Total)           :      168.000170399960 electrons
E(X)               :     -113.228262950189 Eh       
E(C)               :       -6.797487271424 Eh       
E(XC)              :     -120.025750221613 Eh       
DFET-embed. en.    :        0.000000000000 Eh       

---------------
SCF CONVERGENCE
---------------

  Last Energy change         ...   -1.1869e-10  Tolerance :   1.0000e-08
  Last MAX-Density change    ...    3.9968e-15  Tolerance :   1.0000e-07
  Last RMS-Density change    ...    3.9633e-17  Tolerance :   5.0000e-09
  Last Orbital Gradient      ...    1.2682e-06  Tolerance :   1.0000e-05
  Last Orbital Rotation      ...    5.1014e-06  Tolerance :   1.0000e-05

             **** THE GBW FILE WAS UPDATED (60.gbw) ****
             **** DENSITY 60.scfp WAS UPDATED ****
             **** ENERGY FILE WAS UPDATED (60.en.tmp) ****
             **** THE GBW FILE WAS UPDATED (60.gbw) ****
             **** DENSITY 60.scfp WAS UPDATED ****
----------------
ORBITAL ENERGIES
----------------

  NO   OCC          E(Eh)            E(eV) 
   0   2.0000     -19.193357      -522.2778 
   1   2.0000     -19.147785      -521.0377 
   2   2.0000     -19.114731      -520.1383 
   3   2.0000     -19.112800      -520.0857 
   4   2.0000     -14.404669      -391.9710 
   5   2.0000     -14.375451      -391.1759 
   6   2.0000     -14.369187      -391.0054 
   7   2.0000     -10.310135      -280.5530 
   8   2.0000     -10.298397      -280.2336 
   9   2.0000     -10.291777      -280.0535 
  10   2.0000     -10.256510      -279.0938 
  11   2.0000     -10.251171      -278.9485 
  12   2.0000     -10.234524      -278.4955 
  13   2.0000     -10.212857      -277.9060 
  14   2.0000     -10.206898      -277.7438 
  15   2.0000     -10.197414      -277.4858 
  16   2.0000     -10.196239      -277.4538 
  17   2.0000     -10.180515      -277.0259 
  18   2.0000     -10.176472      -276.9159 
  19   2.0000     -10.176092      -276.9055 
  20   2.0000     -10.172687      -276.8129 
  21   2.0000     -10.172634      -276.8114 
  22   2.0000     -10.165065      -276.6055 
  23   2.0000      -1.121134       -30.5076 
  24   2.0000      -1.069705       -29.1082 
  25   2.0000      -1.014749       -27.6127 
  26   2.0000      -1.007483       -27.4150 
  27   2.0000      -0.993159       -27.0252 
  28   2.0000      -0.928515       -25.2662 
  29   2.0000      -0.891591       -24.2614 
  30   2.0000      -0.841313       -22.8933 
  31   2.0000      -0.810558       -22.0564 
  32   2.0000      -0.779935       -21.2231 
  33   2.0000      -0.762884       -20.7591 
  34   2.0000      -0.735703       -20.0195 
  35   2.0000      -0.719104       -19.5678 
  36   2.0000      -0.706926       -19.2364 
  37   2.0000      -0.684953       -18.6385 
  38   2.0000      -0.674446       -18.3526 
  39   2.0000      -0.652508       -17.7556 
  40   2.0000      -0.627267       -17.0688 
  41   2.0000      -0.623326       -16.9616 
  42   2.0000      -0.589830       -16.0501 
  43   2.0000      -0.577147       -15.7050 
  44   2.0000      -0.563738       -15.3401 
  45   2.0000      -0.557894       -15.1811 
  46   2.0000      -0.541293       -14.7293 
  47   2.0000      -0.535289       -14.5660 
  48   2.0000      -0.529604       -14.4113 
  49   2.0000      -0.500710       -13.6250 
  50   2.0000      -0.492201       -13.3935 
  51   2.0000      -0.482049       -13.1172 
  52   2.0000      -0.476526       -12.9669 
  53   2.0000      -0.474432       -12.9099 
  54   2.0000      -0.458939       -12.4884 
  55   2.0000      -0.458602       -12.4792 
  56   2.0000      -0.448035       -12.1917 
  57   2.0000      -0.439382       -11.9562 
  58   2.0000      -0.433299       -11.7907 
  59   2.0000      -0.428195       -11.6518 
  60   2.0000      -0.424031       -11.5385 
  61   2.0000      -0.420824       -11.4512 
  62   2.0000      -0.415588       -11.3087 
  63   2.0000      -0.407083       -11.0773 
  64   2.0000      -0.405947       -11.0464 
  65   2.0000      -0.400035       -10.8855 
  66   2.0000      -0.385102       -10.4792 
  67   2.0000      -0.383284       -10.4297 
  68   2.0000      -0.372350       -10.1321 
  69   2.0000      -0.364100        -9.9077 
  70   2.0000      -0.363018        -9.8782 
  71   2.0000      -0.351086        -9.5535 
  72   2.0000      -0.342556        -9.3214 
  73   2.0000      -0.336307        -9.1514 
  74   2.0000      -0.325715        -8.8632 
  75   2.0000      -0.311531        -8.4772 
  76   2.0000      -0.294895        -8.0245 
  77   2.0000      -0.277377        -7.5478 
  78   2.0000      -0.269319        -7.3285 
  79   2.0000      -0.267600        -7.2818 
  80   2.0000      -0.260664        -7.0930 
  81   2.0000      -0.236644        -6.4394 
  82   2.0000      -0.232487        -6.3263 
  83   2.0000      -0.204871        -5.5748 
  84   0.0000      -0.033479        -0.9110 
  85   0.0000      -0.020716        -0.5637 
  86   0.0000      -0.014336        -0.3901 
  87   0.0000       0.026191         0.7127 
  88   0.0000       0.037983         1.0336 
  89   0.0000       0.041887         1.1398 
  90   0.0000       0.059898         1.6299 
  91   0.0000       0.062745         1.7074 
  92   0.0000       0.068250         1.8572 
  93   0.0000       0.078873         2.1462 
  94   0.0000       0.079596         2.1659 
  95   0.0000       0.089401         2.4327 
  96   0.0000       0.097916         2.6644 
  97   0.0000       0.106610         2.9010 
  98   0.0000       0.109119         2.9693 
  99   0.0000       0.113153         3.0791 
 100   0.0000       0.116302         3.1647 
 101   0.0000       0.118258         3.2180 
 102   0.0000       0.129179         3.5151 
 103   0.0000       0.137207         3.7336 
 104   0.0000       0.138959         3.7813 
 105   0.0000       0.144564         3.9338 
 106   0.0000       0.152419         4.1475 
 107   0.0000       0.156805         4.2669 
 108   0.0000       0.165315         4.4985 
 109   0.0000       0.174868         4.7584 
 110   0.0000       0.185334         5.0432 
 111   0.0000       0.192087         5.2270 
 112   0.0000       0.202150         5.5008 
 113   0.0000       0.204676         5.5695 
 114   0.0000       0.216343         5.8870 
 115   0.0000       0.223079         6.0703 
 116   0.0000       0.224718         6.1149 
 117   0.0000       0.235689         6.4134 
 118   0.0000       0.257830         7.0159 
 119   0.0000       0.260657         7.0928 
 120   0.0000       0.270703         7.3662 
 121   0.0000       0.279291         7.5999 
 122   0.0000       0.286450         7.7947 
 123   0.0000       0.303151         8.2492 
 124   0.0000       0.312324         8.4988 
 125   0.0000       0.314697         8.5633 
 126   0.0000       0.324264         8.8237 
 127   0.0000       0.338031         9.1983 
 128   0.0000       0.349311         9.5052 
 129   0.0000       0.364049         9.9063 
 130   0.0000       0.375169        10.2089 
 131   0.0000       0.376722        10.2511 
 132   0.0000       0.392535        10.6814 
 133   0.0000       0.412045        11.2123 
 134   0.0000       0.416510        11.3338 
 135   0.0000       0.427200        11.6247 
 136   0.0000       0.439112        11.9489 
 137   0.0000       0.441579        12.0160 
 138   0.0000       0.449452        12.2302 
 139   0.0000       0.458037        12.4638 
 140   0.0000       0.462151        12.5758 
 141   0.0000       0.468407        12.7460 
 142   0.0000       0.474378        12.9085 
 143   0.0000       0.477184        12.9848 
 144   0.0000       0.484291        13.1782 
 145   0.0000       0.487713        13.2713 
 146   0.0000       0.490264        13.3408 
 147   0.0000       0.495569        13.4851 
 148   0.0000       0.504729        13.7344 
 149   0.0000       0.509178        13.8554 
 150   0.0000       0.514948        14.0125 
 151   0.0000       0.526366        14.3231 
 152   0.0000       0.531138        14.4530 
 153   0.0000       0.538447        14.6519 
 154   0.0000       0.548814        14.9340 
 155   0.0000       0.553401        15.0588 
 156   0.0000       0.555738        15.1224 
 157   0.0000       0.565393        15.3851 
 158   0.0000       0.567745        15.4491 
 159   0.0000       0.578800        15.7499 
 160   0.0000       0.581499        15.8234 
 161   0.0000       0.589713        16.0469 
 162   0.0000       0.594770        16.1845 
 163   0.0000       0.608217        16.5504 
 164   0.0000       0.610566        16.6143 
 165   0.0000       0.615937        16.7605 
 166   0.0000       0.620552        16.8861 
 167   0.0000       0.624346        16.9893 
 168   0.0000       0.636638        17.3238 
 169   0.0000       0.637592        17.3498 
 170   0.0000       0.642616        17.4865 
 171   0.0000       0.645814        17.5735 
 172   0.0000       0.647032        17.6066 
 173   0.0000       0.652128        17.7453 
 174   0.0000       0.656139        17.8544 
 175   0.0000       0.661699        18.0057 
 176   0.0000       0.665478        18.1086 
 177   0.0000       0.671935        18.2843 
 178   0.0000       0.674846        18.3635 
 179   0.0000       0.677060        18.4237 
 180   0.0000       0.681633        18.5482 
 181   0.0000       0.692706        18.8495 
 182   0.0000       0.701549        19.0901 
 183   0.0000       0.702600        19.1187 
 184   0.0000       0.708659        19.2836 
 185   0.0000       0.710215        19.3259 
 186   0.0000       0.725883        19.7523 
 187   0.0000       0.729091        19.8396 
 188   0.0000       0.731735        19.9115 
 189   0.0000       0.735655        20.0182 
 190   0.0000       0.749896        20.4057 
 191   0.0000       0.755370        20.5547 
 192   0.0000       0.761677        20.7263 
 193   0.0000       0.768646        20.9159 
 194   0.0000       0.770718        20.9723 
 195   0.0000       0.775157        21.0931 
 196   0.0000       0.791961        21.5503 
 197   0.0000       0.803528        21.8651 
 198   0.0000       0.812402        22.1066 
 199   0.0000       0.825818        22.4717 
 200   0.0000       0.835819        22.7438 
 201   0.0000       0.847481        23.0611 
 202   0.0000       0.854066        23.2403 
 203   0.0000       0.866621        23.5820 
 204   0.0000       0.873808        23.7775 
 205   0.0000       0.892589        24.2886 
 206   0.0000       0.906493        24.6669 
 207   0.0000       0.920063        25.0362 
 208   0.0000       0.925144        25.1745 
 209   0.0000       0.934828        25.4380 
 210   0.0000       0.947837        25.7919 
 211   0.0000       0.961022        26.1507 
 212   0.0000       0.986400        26.8413 
 213   0.0000       1.001070        27.2405 
 214   0.0000       1.022438        27.8220 
 215   0.0000       1.025959        27.9178 
 216   0.0000       1.043221        28.3875 
 217   0.0000       1.075343        29.2616 
 218   0.0000       1.078479        29.3469 
 219   0.0000       1.098531        29.8926 
 220   0.0000       1.106526        30.1101 
 221   0.0000       1.118293        30.4303 
 222   0.0000       1.137873        30.9631 
 223   0.0000       1.138807        30.9885 
 224   0.0000       1.142006        31.0756 
 225   0.0000       1.166169        31.7331 
 226   0.0000       1.169275        31.8176 
 227   0.0000       1.196044        32.5460 
 228   0.0000       1.200560        32.6689 
 229   0.0000       1.204455        32.7749 
 230   0.0000       1.213588        33.0234 
 231   0.0000       1.232834        33.5471 
 232   0.0000       1.236617        33.6501 
 233   0.0000       1.237019        33.6610 
 234   0.0000       1.246403        33.9164 
 235   0.0000       1.258023        34.2325 
 236   0.0000       1.265701        34.4415 
 237   0.0000       1.281611        34.8744 
 238   0.0000       1.288460        35.0608 
 239   0.0000       1.291778        35.1511 
 240   0.0000       1.299861        35.3710 
 241   0.0000       1.311229        35.6803 
 242   0.0000       1.328756        36.1573 
 243   0.0000       1.336147        36.3584 
 244   0.0000       1.343334        36.5540 
 245   0.0000       1.352671        36.8081 
 246   0.0000       1.361810        37.0567 
 247   0.0000       1.371533        37.3213 
 248   0.0000       1.389996        37.8237 
 249   0.0000       1.411366        38.4052 
 250   0.0000       1.417536        38.5731 
 251   0.0000       1.422260        38.7017 
 252   0.0000       1.431538        38.9541 
 253   0.0000       1.473550        40.0973 
 254   0.0000       1.481025        40.3007 
 255   0.0000       1.497083        40.7377 
 256   0.0000       1.507071        41.0095 
 257   0.0000       1.513215        41.1767 
 258   0.0000       1.523255        41.4499 
 259   0.0000       1.533460        41.7276 
 260   0.0000       1.544009        42.0146 
 261   0.0000       1.580543        43.0088 
 262   0.0000       1.592331        43.3295 
 263   0.0000       1.611934        43.8629 
 264   0.0000       1.639833        44.6221 
 265   0.0000       1.645472        44.7756 
 266   0.0000       1.666309        45.3426 
 267   0.0000       1.675359        45.5888 
 268   0.0000       1.687625        45.9226 
 269   0.0000       1.693257        46.0759 
 270   0.0000       1.703296        46.3490 
 271   0.0000       1.705562        46.4107 
 272   0.0000       1.712932        46.6112 
 273   0.0000       1.723686        46.9039 
 274   0.0000       1.729607        47.0650 
 275   0.0000       1.733622        47.1743 
 276   0.0000       1.741537        47.3896 
 277   0.0000       1.753608        47.7181 
 278   0.0000       1.763957        47.9997 
 279   0.0000       1.772022        48.2192 
 280   0.0000       1.776513        48.3414 
 281   0.0000       1.782554        48.5058 
 282   0.0000       1.786110        48.6025 
 283   0.0000       1.791896        48.7600 
 284   0.0000       1.795872        48.8682 
 285   0.0000       1.800226        48.9866 
 286   0.0000       1.805635        49.1338 
 287   0.0000       1.810000        49.2526 
 288   0.0000       1.814437        49.3733 
 289   0.0000       1.825229        49.6670 
 290   0.0000       1.834072        49.9076 
 291   0.0000       1.837153        49.9915 
 292   0.0000       1.841655        50.1140 
 293   0.0000       1.847160        50.2638 
 294   0.0000       1.859088        50.5883 
 295   0.0000       1.865134        50.7529 
 296   0.0000       1.871597        50.9287 
 297   0.0000       1.882174        51.2166 
 298   0.0000       1.905811        51.8598 
 299   0.0000       1.909313        51.9550 
 300   0.0000       1.914693        52.1014 
 301   0.0000       1.917232        52.1705 
 302   0.0000       1.935276        52.6615 
 303   0.0000       1.943173        52.8764 
 304   0.0000       1.949998        53.0621 
 305   0.0000       1.953734        53.1638 
 306   0.0000       1.961585        53.3774 
 307   0.0000       1.964083        53.4454 
 308   0.0000       1.968802        53.5738 
 309   0.0000       1.976420        53.7811 
 310   0.0000       1.988344        54.1056 
 311   0.0000       1.996670        54.3322 
 312   0.0000       2.023200        55.0541 
 313   0.0000       2.040531        55.5257 
 314   0.0000       2.049817        55.7784 
 315   0.0000       2.055521        55.9336 
 316   0.0000       2.063809        56.1591 
 317   0.0000       2.067699        56.2650 
 318   0.0000       2.076570        56.5063 
 319   0.0000       2.099246        57.1234 
 320   0.0000       2.119658        57.6788 
 321   0.0000       2.144297        58.3493 
 322   0.0000       2.150260        58.5116 
 323   0.0000       2.159731        58.7693 
 324   0.0000       2.164679        58.9039 
 325   0.0000       2.175560        59.2000 
 326   0.0000       2.192609        59.6639 
 327   0.0000       2.203281        59.9543 
 328   0.0000       2.213041        60.2199 
 329   0.0000       2.217133        60.3313 
 330   0.0000       2.221991        60.4635 
 331   0.0000       2.230384        60.6918 
 332   0.0000       2.237133        60.8755 
 333   0.0000       2.246592        61.1329 
 334   0.0000       2.263170        61.5840 
 335   0.0000       2.281403        62.0801 
 336   0.0000       2.291476        62.3542 
 337   0.0000       2.305522        62.7364 
 338   0.0000       2.322521        63.1990 
 339   0.0000       2.330961        63.4287 
 340   0.0000       2.346660        63.8559 
 341   0.0000       2.354163        64.0600 
 342   0.0000       2.365519        64.3690 
 343   0.0000       2.371458        64.5307 
 344   0.0000       2.387626        64.9706 
 345   0.0000       2.398999        65.2801 
 346   0.0000       2.408813        65.5471 
 347   0.0000       2.419717        65.8439 
 348   0.0000       2.430218        66.1296 
 349   0.0000       2.436643        66.3044 
 350   0.0000       2.472763        67.2873 
 351   0.0000       2.489982        67.7559 
 352   0.0000       2.497059        67.9484 
 353   0.0000       2.508886        68.2703 
 354   0.0000       2.536472        69.0209 
 355   0.0000       2.567545        69.8665 
 356   0.0000       2.578188        70.1561 
 357   0.0000       2.586434        70.3805 
 358   0.0000       2.597861        70.6914 
 359   0.0000       2.609382        71.0049 
 360   0.0000       2.622605        71.3647 
 361   0.0000       2.632298        71.6285 
 362   0.0000       2.647347        72.0380 
 363   0.0000       2.661542        72.4242 
 364   0.0000       2.669855        72.6504 
 365   0.0000       2.688677        73.1626 
 366   0.0000       2.708342        73.6977 
 367   0.0000       2.718445        73.9727 
 368   0.0000       2.724060        74.1254 
 369   0.0000       2.730229        74.2933 
 370   0.0000       2.737312        74.4860 
 371   0.0000       2.744192        74.6733 
 372   0.0000       2.751376        74.8687 
 373   0.0000       2.766977        75.2933 
 374   0.0000       2.774862        75.5078 
 375   0.0000       2.790483        75.9329 
 376   0.0000       2.798369        76.1475 
 377   0.0000       2.802968        76.2726 
 378   0.0000       2.815427        76.6117 
 379   0.0000       2.818578        76.6974 
 380   0.0000       2.831070        77.0373 
 381   0.0000       2.847681        77.4893 
 382   0.0000       2.860063        77.8263 
 383   0.0000       2.868753        78.0627 
 384   0.0000       2.893443        78.7346 
 385   0.0000       2.914219        79.2999 
 386   0.0000       2.918509        79.4167 
 387   0.0000       2.929186        79.7072 
 388   0.0000       2.933208        79.8166 
 389   0.0000       2.955338        80.4188 
 390   0.0000       2.995239        81.5046 
 391   0.0000       3.009750        81.8995 
 392   0.0000       3.036459        82.6262 
 393   0.0000       3.053101        83.0791 
 394   0.0000       3.064589        83.3917 
 395   0.0000       3.075970        83.7014 
 396   0.0000       3.099389        84.3387 
 397   0.0000       3.106329        84.5275 
 398   0.0000       3.113129        84.7126 
 399   0.0000       3.132878        85.2499 
 400   0.0000       3.145606        85.5963 
 401   0.0000       3.154578        85.8404 
 402   0.0000       3.191374        86.8417 
 403   0.0000       3.228352        87.8479 
 404   0.0000       3.246565        88.3435 
 405   0.0000       3.299582        89.7862 
 406   0.0000       3.316554        90.2480 
 407   0.0000       3.376304        91.8739 
 408   0.0000       3.416763        92.9748 
 409   0.0000       3.448700        93.8439 
 410   0.0000       3.496233        95.1373 
 411   0.0000       3.566666        97.0539 
 412   0.0000       3.594447        97.8099 
 413   0.0000       3.603635        98.0599 
 414   0.0000       3.642154        99.1081 
 415   0.0000       3.708936       100.9253 
 416   0.0000       3.721731       101.2734 

                    ********************************
                    * MULLIKEN POPULATION ANALYSIS *
                    ********************************

-----------------------
MULLIKEN ATOMIC CHARGES
-----------------------
   0 C :    0.060364
   1 C :    0.043660
   2 C :    0.139532
   3 O :   -0.277853
   4 N :   -0.169060
   5 C :    0.094340
   6 C :    0.144059
   7 O :   -0.220493
   8 N :   -0.137816
   9 O :   -0.258288
  10 C :    0.162397
  11 C :    0.202058
  12 C :   -0.066519
  13 C :   -0.014536
  14 N :   -0.012294
  15 C :    0.082646
  16 C :   -0.047855
  17 C :    0.020671
  18 C :    0.022135
  19 C :   -0.080702
  20 C :    0.083061
  21 O :   -0.330714
  22 C :    0.181169
  23 H :    0.027895
  24 H :    0.035773
  25 H :    0.030451
  26 H :    0.058322
  27 H :    0.142394
  28 H :    0.018638
  29 H :    0.041007
  30 H :    0.019878
  31 H :    0.001805
  32 H :    0.037061
  33 H :   -0.028801
  34 H :    0.131062
  35 H :   -0.067969
  36 H :   -0.035665
  37 H :   -0.030183
  38 H :   -0.039706
  39 H :    0.009192
  40 H :    0.023221
  41 H :    0.005665
Sum of atomic charges:   -0.0000000

--------------------------------
MULLIKEN REDUCED ORBITAL CHARGES
--------------------------------
  0 C s       :     2.973721  s :     2.973721
      pz      :     1.015396  p :     2.938558
      px      :     0.958899
      py      :     0.964263
      dz2     :     0.005361  d :     0.027357
      dxz     :     0.001969
      dyz     :     0.008221
      dx2y2   :     0.005238
      dxy     :     0.006569
  1 C s       :     3.057627  s :     3.057627
      pz      :     0.814226  p :     2.842672
      px      :     0.983575
      py      :     1.044870
      dz2     :     0.013921  d :     0.056041
      dxz     :     0.012257
      dyz     :     0.010847
      dx2y2   :     0.006865
      dxy     :     0.012152
  2 C s       :     3.066642  s :     3.066642
      pz      :     0.898099  p :     2.691491
      px      :     0.927909
      py      :     0.865483
      dz2     :     0.022437  d :     0.102335
      dxz     :     0.038410
      dyz     :     0.021301
      dx2y2   :     0.009059
      dxy     :     0.011128
  3 O s       :     3.776503  s :     3.776503
      pz      :     1.312405  p :     4.485733
      px      :     1.718432
      py      :     1.454896
      dz2     :     0.007082  d :     0.015617
      dxz     :     0.003604
      dyz     :     0.004552
      dx2y2   :     0.000144
      dxy     :     0.000235
  4 N s       :     3.385074  s :     3.385074
      pz      :     1.054091  p :     3.766517
      px      :     1.103667
      py      :     1.608759
      dz2     :     0.004943  d :     0.017469
      dxz     :     0.006311
      dyz     :     0.002023
      dx2y2   :     0.002330
      dxy     :     0.001863
  5 C s       :     2.963617  s :     2.963617
      pz      :     0.847983  p :     2.843985
      px      :     1.107060
      py      :     0.888942
      dz2     :     0.024087  d :     0.098058
      dxz     :     0.012963
      dyz     :     0.024378
      dx2y2   :     0.017267
      dxy     :     0.019362
  6 C s       :     3.093702  s :     3.093702
      pz      :     0.909280  p :     2.655760
      px      :     0.869319
      py      :     0.877161
      dz2     :     0.022809  d :     0.106479
      dxz     :     0.035434
      dyz     :     0.029656
      dx2y2   :     0.011046
      dxy     :     0.007535
  7 O s       :     3.756490  s :     3.756490
      pz      :     1.320018  p :     4.447356
      px      :     1.670317
      py      :     1.457020
      dz2     :     0.007652  d :     0.016647
      dxz     :     0.003860
      dyz     :     0.004879
      dx2y2   :     0.000125
      dxy     :     0.000132
  8 N s       :     3.358898  s :     3.358898
      pz      :     1.200793  p :     3.734927
      px      :     1.342172
      py      :     1.191963
      dz2     :     0.008709  d :     0.043991
      dxz     :     0.006182
      dyz     :     0.010684
      dx2y2   :     0.008743
      dxy     :     0.009673
  9 O s       :     3.788158  s :     3.788158
      pz      :     1.636878  p :     4.447261
      px      :     1.729859
      py      :     1.080524
      dz2     :     0.002985  d :     0.022868
      dxz     :     0.003291
      dyz     :     0.006986
      dx2y2   :     0.004000
      dxy     :     0.005605
 10 C s       :     3.013040  s :     3.013040
      pz      :     0.944754  p :     2.769884
      px      :     1.026607
      py      :     0.798522
      dz2     :     0.013143  d :     0.054679
      dxz     :     0.003488
      dyz     :     0.012802
      dx2y2   :     0.009330
      dxy     :     0.015916
 11 C s       :     2.890657  s :     2.890657
      pz      :     1.021075  p :     2.870244
      px      :     0.921436
      py      :     0.927732
      dz2     :     0.010452  d :     0.037041
      dxz     :     0.006359
      dyz     :     0.003041
      dx2y2   :     0.008713
      dxy     :     0.008476
 12 C s       :     3.148403  s :     3.148403
      pz      :     1.018029  p :     2.872421
      px      :     0.939785
      py      :     0.914607
      dz2     :     0.007421  d :     0.045695
      dxz     :     0.007854
      dyz     :     0.006548
      dx2y2   :     0.011160
      dxy     :     0.012712
 13 C s       :     3.179751  s :     3.179751
      pz      :     1.043356  p :     2.780650
      px      :     0.780902
      py      :     0.956392
      dz2     :     0.008133  d :     0.054135
      dxz     :     0.011091
      dyz     :     0.005486
      dx2y2   :     0.015590
      dxy     :     0.013835
 14 N s       :     3.305263  s :     3.305263
      pz      :     1.451586  p :     3.679938
      px      :     1.081953
      py      :     1.146398
      dz2     :     0.002340  d :     0.027093
      dxz     :     0.005930
      dyz     :     0.004388
      dx2y2   :     0.007364
      dxy     :     0.007071
 15 C s       :     2.970632  s :     2.970632
      pz      :     1.027751  p :     2.881755
      px      :     0.918740
      py      :     0.935264
      dz2     :     0.008721  d :     0.064968
      dxz     :     0.010580
      dyz     :     0.011062
      dx2y2   :     0.017951
      dxy     :     0.016653
 16 C s       :     3.293723  s :     3.293723
      pz      :     0.970548  p :     2.718547
      px      :     0.872360
      py      :     0.875639
      dz2     :     0.003562  d :     0.035585
      dxz     :     0.006241
      dyz     :     0.005542
      dx2y2   :     0.009193
      dxy     :     0.011048
 17 C s       :     3.151233  s :     3.151233
      pz      :     0.991604  p :     2.791205
      px      :     0.870206
      py      :     0.929395
      dz2     :     0.005605  d :     0.036891
      dxz     :     0.004648
      dyz     :     0.006001
      dx2y2   :     0.009717
      dxy     :     0.010920
 18 C s       :     3.150929  s :     3.150929
      pz      :     0.974735  p :     2.790404
      px      :     0.981998
      py      :     0.833671
      dz2     :     0.003686  d :     0.036532
      dxz     :     0.007483
      dyz     :     0.004273
      dx2y2   :     0.010938
      dxy     :     0.010152
 19 C s       :     3.265018  s :     3.265018
      pz      :     0.968348  p :     2.778770
      px      :     0.849470
      py      :     0.960951
      dz2     :     0.003430  d :     0.036915
      dxz     :     0.006591
      dyz     :     0.005947
      dx2y2   :     0.010112
      dxy     :     0.010834
 20 C s       :     3.101575  s :     3.101575
      pz      :     0.990955  p :     2.768254
      px      :     0.949441
      py      :     0.827858
      dz2     :     0.005585  d :     0.047109
      dxz     :     0.008969
      dyz     :     0.007394
      dx2y2   :     0.010920
      dxy     :     0.014241
 21 O s       :     3.764460  s :     3.764460
      pz      :     1.760826  p :     4.549089
      px      :     1.582097
      py      :     1.206167
      dz2     :     0.002252  d :     0.017165
      dxz     :     0.002423
      dyz     :     0.003284
      dx2y2   :     0.003767
      dxy     :     0.005439
 22 C s       :     2.982632  s :     2.982632
      pz      :     0.997336  p :     2.778178
      px      :     0.896660
      py      :     0.884183
      dz2     :     0.011150  d :     0.058021
      dxz     :     0.008271
      dyz     :     0.010123
      dx2y2   :     0.013381
      dxy     :     0.015096
 23 H s       :     0.948236  s :     0.948236
      pz      :     0.009692  p :     0.023869
      px      :     0.004469
      py      :     0.009708
 24 H s       :     0.941028  s :     0.941028
      pz      :     0.012612  p :     0.023200
      px      :     0.004521
      py      :     0.006066
 25 H s       :     0.947194  s :     0.947194
      pz      :     0.004916  p :     0.022355
      px      :     0.011932
      py      :     0.005506
 26 H s       :     0.920873  s :     0.920873
      pz      :     0.004952  p :     0.020805
      px      :     0.006364
      py      :     0.009489
 27 H s       :     0.815672  s :     0.815672
      pz      :     0.013873  p :     0.041934
      px      :     0.016447
      py      :     0.011613
 28 H s       :     0.957667  s :     0.957667
      pz      :     0.014325  p :     0.023695
      px      :     0.005889
      py      :     0.003480
 29 H s       :     0.937452  s :     0.937452
      pz      :     0.004345  p :     0.021541
      px      :     0.009302
      py      :     0.007894
 30 H s       :     0.958978  s :     0.958978
      pz      :     0.005126  p :     0.021144
      px      :     0.011497
      py      :     0.004521
 31 H s       :     0.976422  s :     0.976422
      pz      :     0.005284  p :     0.021773
      px      :     0.003796
      py      :     0.012693
 32 H s       :     0.940410  s :     0.940410
      pz      :     0.014507  p :     0.022529
      px      :     0.003708
      py      :     0.004314
 33 H s       :     1.004298  s :     1.004298
      pz      :     0.005808  p :     0.024503
      px      :     0.007187
      py      :     0.011508
 34 H s       :     0.827423  s :     0.827423
      pz      :     0.014132  p :     0.041516
      px      :     0.011400
      py      :     0.015984
 35 H s       :     1.043869  s :     1.043869
      pz      :     0.007262  p :     0.024099
      px      :     0.010366
      py      :     0.006471
 36 H s       :     1.011741  s :     1.011741
      pz      :     0.004822  p :     0.023925
      px      :     0.012906
      py      :     0.006196
 37 H s       :     1.007349  s :     1.007349
      pz      :     0.006446  p :     0.022834
      px      :     0.003553
      py      :     0.012835
 38 H s       :     1.016982  s :     1.016982
      pz      :     0.006767  p :     0.022725
      px      :     0.009369
      py      :     0.006589
 39 H s       :     0.968112  s :     0.968112
      pz      :     0.006954  p :     0.022696
      px      :     0.011751
      py      :     0.003991
 40 H s       :     0.955753  s :     0.955753
      pz      :     0.007016  p :     0.021026
      px      :     0.004256
      py      :     0.009754
 41 H s       :     0.972050  s :     0.972050
      pz      :     0.013953  p :     0.022285
      px      :     0.003719
      py      :     0.004613


                     *******************************
                     * LOEWDIN POPULATION ANALYSIS *
                     *******************************

----------------------
LOEWDIN ATOMIC CHARGES
----------------------
   0 C :   -0.042806
   1 C :   -0.009718
   2 C :    0.104385
   3 O :   -0.238630
   4 N :   -0.022424
   5 C :    0.030433
   6 C :    0.064115
   7 O :   -0.189092
   8 N :    0.023553
   9 O :   -0.084302
  10 C :    0.051305
  11 C :   -0.013943
  12 C :   -0.078663
  13 C :   -0.011565
  14 N :    0.070254
  15 C :   -0.000349
  16 C :   -0.048069
  17 C :   -0.028444
  18 C :   -0.045566
  19 C :   -0.024107
  20 C :   -0.050069
  21 O :   -0.118816
  22 C :    0.047190
  23 H :    0.027913
  24 H :    0.031027
  25 H :    0.037653
  26 H :    0.058031
  27 H :    0.091518
  28 H :    0.008721
  29 H :    0.029942
  30 H :    0.012891
  31 H :    0.033066
  32 H :    0.050324
  33 H :    0.010795
  34 H :    0.104305
  35 H :    0.015819
  36 H :    0.020749
  37 H :    0.025155
  38 H :    0.020712
  39 H :    0.006882
  40 H :    0.027537
  41 H :    0.002288

-------------------------------
LOEWDIN REDUCED ORBITAL CHARGES
-------------------------------
  0 C s       :     2.852072  s :     2.852072
      pz      :     1.067677  p :     3.120852
      px      :     1.024310
      py      :     1.028865
      dz2     :     0.014308  d :     0.069882
      dxz     :     0.003994
      dyz     :     0.020835
      dx2y2   :     0.012327
      dxy     :     0.018418
  1 C s       :     2.843795  s :     2.843795
      pz      :     0.932490  p :     3.029208
      px      :     1.040874
      py      :     1.055844
      dz2     :     0.033543  d :     0.136714
      dxz     :     0.030620
      dyz     :     0.026422
      dx2y2   :     0.013891
      dxy     :     0.032239
  2 C s       :     2.865301  s :     2.865301
      pz      :     0.998266  p :     2.802563
      px      :     0.951517
      py      :     0.852781
      dz2     :     0.053522  d :     0.227750
      dxz     :     0.089531
      dyz     :     0.042199
      dx2y2   :     0.020141
      dxy     :     0.022358
  3 O s       :     3.585733  s :     3.585733
      pz      :     1.428477  p :     4.626245
      px      :     1.735329
      py      :     1.462439
      dz2     :     0.014655  d :     0.026653
      dxz     :     0.005519
      dyz     :     0.005959
      dx2y2   :     0.000208
      dxy     :     0.000311
  4 N s       :     3.079573  s :     3.079573
      pz      :     1.149373  p :     3.895510
      px      :     1.181860
      py      :     1.564276
      dz2     :     0.013956  d :     0.047341
      dxz     :     0.018752
      dyz     :     0.004876
      dx2y2   :     0.005781
      dxy     :     0.003977
  5 C s       :     2.822934  s :     2.822934
      pz      :     0.927656  p :     2.922956
      px      :     1.073629
      py      :     0.921671
      dz2     :     0.059101  d :     0.223677
      dxz     :     0.029701
      dyz     :     0.052585
      dx2y2   :     0.036517
      dxy     :     0.045774
  6 C s       :     2.858205  s :     2.858205
      pz      :     1.010998  p :     2.830599
      px      :     0.919606
      py      :     0.899994
      dz2     :     0.056481  d :     0.247081
      dxz     :     0.083266
      dyz     :     0.065814
      dx2y2   :     0.023126
      dxy     :     0.018394
  7 O s       :     3.572560  s :     3.572560
      pz      :     1.437732  p :     4.588069
      px      :     1.681910
      py      :     1.468427
      dz2     :     0.016036  d :     0.028464
      dxz     :     0.005373
      dyz     :     0.006695
      dx2y2   :     0.000170
      dxy     :     0.000189
  8 N s       :     3.078446  s :     3.078446
      pz      :     1.232717  p :     3.801661
      px      :     1.351302
      py      :     1.217642
      dz2     :     0.019564  d :     0.096340
      dxz     :     0.013870
      dyz     :     0.024402
      dx2y2   :     0.016818
      dxy     :     0.021686
  9 O s       :     3.475203  s :     3.475203
      pz      :     1.667828  p :     4.565774
      px      :     1.743308
      py      :     1.154638
      dz2     :     0.004759  d :     0.043325
      dxz     :     0.004607
      dyz     :     0.013688
      dx2y2   :     0.009327
      dxy     :     0.010944
 10 C s       :     2.855476  s :     2.855476
      pz      :     1.013081  p :     2.966394
      px      :     1.071791
      py      :     0.881522
      dz2     :     0.032973  d :     0.126825
      dxz     :     0.007610
      dyz     :     0.027851
      dx2y2   :     0.019353
      dxy     :     0.039038
 11 C s       :     2.832526  s :     2.832526
      pz      :     1.065632  p :     3.085717
      px      :     0.993093
      py      :     1.026992
      dz2     :     0.027115  d :     0.095701
      dxz     :     0.015522
      dyz     :     0.007202
      dx2y2   :     0.022862
      dxy     :     0.022999
 12 C s       :     2.824571  s :     2.824571
      pz      :     1.049728  p :     3.135759
      px      :     1.026614
      py      :     1.059417
      dz2     :     0.015583  d :     0.118333
      dxz     :     0.018088
      dyz     :     0.017372
      dx2y2   :     0.031662
      dxy     :     0.035629
 13 C s       :     2.833155  s :     2.833155
      pz      :     1.049033  p :     3.047579
      px      :     0.937539
      py      :     1.061006
      dz2     :     0.017709  d :     0.130831
      dxz     :     0.025489
      dyz     :     0.013204
      dx2y2   :     0.041126
      dxy     :     0.033304
 14 N s       :     3.020263  s :     3.020263
      pz      :     1.433861  p :     3.842701
      px      :     1.186501
      py      :     1.222338
      dz2     :     0.004427  d :     0.066782
      dxz     :     0.013184
      dyz     :     0.009936
      dx2y2   :     0.020491
      dxy     :     0.018744
 15 C s       :     2.801763  s :     2.801763
      pz      :     1.004503  p :     3.038444
      px      :     1.074705
      py      :     0.959237
      dz2     :     0.019461  d :     0.160142
      dxz     :     0.025053
      dyz     :     0.025711
      dx2y2   :     0.045471
      dxy     :     0.044446
 16 C s       :     2.843992  s :     2.843992
      pz      :     1.029932  p :     3.109897
      px      :     1.028749
      py      :     1.051216
      dz2     :     0.008057  d :     0.094180
      dxz     :     0.015124
      dyz     :     0.013757
      dx2y2   :     0.026304
      dxy     :     0.030938
 17 C s       :     2.847642  s :     2.847642
      pz      :     1.002768  p :     3.085423
      px      :     1.041422
      py      :     1.041234
      dz2     :     0.012562  d :     0.095379
      dxz     :     0.011368
      dyz     :     0.015565
      dx2y2   :     0.026436
      dxy     :     0.029449
 18 C s       :     2.851581  s :     2.851581
      pz      :     1.008163  p :     3.099454
      px      :     1.065994
      py      :     1.025297
      dz2     :     0.008444  d :     0.094531
      dxz     :     0.018490
      dyz     :     0.009894
      dx2y2   :     0.029547
      dxy     :     0.028156
 19 C s       :     2.849381  s :     2.849381
      pz      :     0.995662  p :     3.078909
      px      :     1.047852
      py      :     1.035395
      dz2     :     0.007886  d :     0.095817
      dxz     :     0.015508
      dyz     :     0.014289
      dx2y2   :     0.027167
      dxy     :     0.030967
 20 C s       :     2.813772  s :     2.813772
      pz      :     1.024784  p :     3.109977
      px      :     1.038138
      py      :     1.047056
      dz2     :     0.012789  d :     0.126319
      dxz     :     0.022676
      dyz     :     0.018281
      dx2y2   :     0.030663
      dxy     :     0.041911
 21 O s       :     3.450208  s :     3.450208
      pz      :     1.768802  p :     4.636163
      px      :     1.609442
      py      :     1.257919
      dz2     :     0.003744  d :     0.032445
      dxz     :     0.003148
      dyz     :     0.006540
      dx2y2   :     0.008047
      dxy     :     0.010966
 22 C s       :     2.841691  s :     2.841691
      pz      :     1.064978  p :     2.977443
      px      :     0.970200
      py      :     0.942264
      dz2     :     0.027540  d :     0.133677
      dxz     :     0.018595
      dyz     :     0.023208
      dx2y2   :     0.031025
      dxy     :     0.033309
 23 H s       :     0.903100  s :     0.903100
      pz      :     0.026918  p :     0.068987
      px      :     0.012782
      py      :     0.029287
 24 H s       :     0.904064  s :     0.904064
      pz      :     0.035871  p :     0.064909
      px      :     0.012382
      py      :     0.016656
 25 H s       :     0.900962  s :     0.900962
      pz      :     0.011697  p :     0.061384
      px      :     0.034272
      py      :     0.015415
 26 H s       :     0.879129  s :     0.879129
      pz      :     0.015516  p :     0.062841
      px      :     0.019866
      py      :     0.027459
 27 H s       :     0.785479  s :     0.785479
      pz      :     0.038174  p :     0.123003
      px      :     0.047745
      py      :     0.037084
 28 H s       :     0.923331  s :     0.923331
      pz      :     0.043791  p :     0.067948
      px      :     0.014246
      py      :     0.009911
 29 H s       :     0.909055  s :     0.909055
      pz      :     0.010591  p :     0.061003
      px      :     0.026064
      py      :     0.024348
 30 H s       :     0.926268  s :     0.926268
      pz      :     0.012793  p :     0.060842
      px      :     0.033592
      py      :     0.014457
 31 H s       :     0.903615  s :     0.903615
      pz      :     0.014562  p :     0.063319
      px      :     0.011466
      py      :     0.037291
 32 H s       :     0.884627  s :     0.884627
      pz      :     0.042355  p :     0.065049
      px      :     0.011858
      py      :     0.010835
 33 H s       :     0.912279  s :     0.912279
      pz      :     0.018735  p :     0.076926
      px      :     0.024324
      py      :     0.033866
 34 H s       :     0.785966  s :     0.785966
      pz      :     0.039331  p :     0.109729
      px      :     0.029107
      py      :     0.041292
 35 H s       :     0.911859  s :     0.911859
      pz      :     0.021841  p :     0.072322
      px      :     0.030744
      py      :     0.019738
 36 H s       :     0.908886  s :     0.908886
      pz      :     0.015017  p :     0.070365
      px      :     0.036555
      py      :     0.018794
 37 H s       :     0.908217  s :     0.908217
      pz      :     0.019036  p :     0.066629
      px      :     0.011683
      py      :     0.035909
 38 H s       :     0.912969  s :     0.912969
      pz      :     0.019791  p :     0.066318
      px      :     0.027201
      py      :     0.019327
 39 H s       :     0.926645  s :     0.926645
      pz      :     0.018045  p :     0.066473
      px      :     0.036616
      py      :     0.011812
 40 H s       :     0.913014  s :     0.913014
      pz      :     0.017730  p :     0.059449
      px      :     0.012223
      py      :     0.029496
 41 H s       :     0.932988  s :     0.932988
      pz      :     0.041468  p :     0.064724
      px      :     0.010074
      py      :     0.013182


                      *****************************
                      * MAYER POPULATION ANALYSIS *
                      *****************************

  NA   - Mulliken gross atomic population
  ZA   - Total nuclear charge
  QA   - Mulliken gross atomic charge
  VA   - Mayer's total valence
  BVA  - Mayer's bonded valence
  FA   - Mayer's free valence

  ATOM       NA         ZA         QA         VA         BVA        FA
  0 C      5.9396     6.0000     0.0604     3.9478     3.9478    -0.0000
  1 C      5.9563     6.0000     0.0437     3.9326     3.9326    -0.0000
  2 C      5.8605     6.0000     0.1395     4.2750     4.2750    -0.0000
  3 O      8.2779     8.0000    -0.2779     2.2264     2.2264    -0.0000
  4 N      7.1691     7.0000    -0.1691     3.1224     3.1224     0.0000
  5 C      5.9057     6.0000     0.0943     4.1081     4.1081    -0.0000
  6 C      5.8559     6.0000     0.1441     4.2358     4.2358     0.0000
  7 O      8.2205     8.0000    -0.2205     2.3109     2.3109    -0.0000
  8 N      7.1378     7.0000    -0.1378     3.0481     3.0481     0.0000
  9 O      8.2583     8.0000    -0.2583     2.0328     2.0328     0.0000
 10 C      5.8376     6.0000     0.1624     3.9082     3.9082     0.0000
 11 C      5.7979     6.0000     0.2021     3.7723     3.7723     0.0000
 12 C      6.0665     6.0000    -0.0665     3.9334     3.9334    -0.0000
 13 C      6.0145     6.0000    -0.0145     3.8268     3.8268    -0.0000
 14 N      7.0123     7.0000    -0.0123     3.3827     3.3827     0.0000
 15 C      5.9174     6.0000     0.0826     3.8897     3.8897     0.0000
 16 C      6.0479     6.0000    -0.0479     3.7371     3.7371    -0.0000
 17 C      5.9793     6.0000     0.0207     3.8201     3.8201     0.0000
 18 C      5.9779     6.0000     0.0221     3.8086     3.8086    -0.0000
 19 C      6.0807     6.0000    -0.0807     3.7961     3.7961    -0.0000
 20 C      5.9169     6.0000     0.0831     3.8749     3.8749    -0.0000
 21 O      8.3307     8.0000    -0.3307     2.1333     2.1333    -0.0000
 22 C      5.8188     6.0000     0.1812     3.9340     3.9340     0.0000
 23 H      0.9721     1.0000     0.0279     1.0052     1.0052     0.0000
 24 H      0.9642     1.0000     0.0358     1.0114     1.0114    -0.0000
 25 H      0.9695     1.0000     0.0305     0.9897     0.9897    -0.0000
 26 H      0.9417     1.0000     0.0583     1.0023     1.0023    -0.0000
 27 H      0.8576     1.0000     0.1424     1.0301     1.0301    -0.0000
 28 H      0.9814     1.0000     0.0186     0.9964     0.9964    -0.0000
 29 H      0.9590     1.0000     0.0410     0.9886     0.9886    -0.0000
 30 H      0.9801     1.0000     0.0199     0.9859     0.9859    -0.0000
 31 H      0.9982     1.0000     0.0018     0.9980     0.9980     0.0000
 32 H      0.9629     1.0000     0.0371     1.0128     1.0128     0.0000
 33 H      1.0288     1.0000    -0.0288     1.0196     1.0196    -0.0000
 34 H      0.8689     1.0000     0.1311     0.9884     0.9884    -0.0000
 35 H      1.0680     1.0000    -0.0680     0.9817     0.9817    -0.0000
 36 H      1.0357     1.0000    -0.0357     0.9768     0.9768     0.0000
 37 H      1.0302     1.0000    -0.0302     0.9755     0.9755    -0.0000
 38 H      1.0397     1.0000    -0.0397     0.9828     0.9828    -0.0000
 39 H      0.9908     1.0000     0.0092     1.0091     1.0091    -0.0000
 40 H      0.9768     1.0000     0.0232     0.9876     0.9876     0.0000
 41 H      0.9943     1.0000     0.0057     0.9917     0.9917     0.0000

  Mayer bond orders larger than 0.100000
B(  0-C ,  1-C ) :   1.0645 B(  0-C , 23-H ) :   0.9601 B(  0-C , 24-H ) :   0.9590 
B(  0-C , 25-H ) :   0.9584 B(  1-C ,  2-C ) :   0.9608 B(  1-C ,  8-N ) :   0.9030 
B(  1-C , 26-H ) :   0.9053 B(  2-C ,  3-O ) :   2.0348 B(  2-C ,  4-N ) :   1.1544 
B(  4-N ,  5-C ) :   1.0006 B(  4-N , 27-H ) :   0.8916 B(  5-C ,  6-C ) :   0.8704 
B(  5-C , 11-C ) :   0.9954 B(  5-C , 21-O ) :   1.0549 B(  6-C ,  7-O ) :   2.1435 
B(  6-C ,  8-N ) :   1.0821 B(  8-N ,  9-O ) :   0.9276 B(  9-O , 10-C ) :   0.9694 
B( 10-C , 28-H ) :   0.9643 B( 10-C , 29-H ) :   0.9750 B( 10-C , 30-H ) :   0.9673 
B( 11-C , 12-C ) :   1.0419 B( 11-C , 31-H ) :   0.9013 B( 11-C , 32-H ) :   0.8739 
B( 12-C , 13-C ) :   1.5245 B( 12-C , 20-C ) :   1.2448 B( 13-C , 14-N ) :   1.1739 
B( 13-C , 33-H ) :   0.9733 B( 14-N , 15-C ) :   1.2003 B( 14-N , 34-H ) :   0.9225 
B( 15-C , 16-C ) :   1.2686 B( 15-C , 20-C ) :   1.2974 B( 16-C , 17-C ) :   1.4051 
B( 16-C , 35-H ) :   1.0105 B( 17-C , 18-C ) :   1.3155 B( 17-C , 36-H ) :   0.9883 
B( 18-C , 19-C ) :   1.4333 B( 18-C , 37-H ) :   0.9860 B( 19-C , 20-C ) :   1.2817 
B( 19-C , 38-H ) :   0.9809 B( 21-O , 22-C ) :   0.9986 B( 22-C , 39-H ) :   0.9551 
B( 22-C , 40-H ) :   0.9726 B( 22-C , 41-H ) :   0.9594 

-------
TIMINGS
-------

Total SCF time: 0 days 0 hours 5 min 58 sec 

Total time                  ....     358.754 sec
Sum of individual times     ....     357.881 sec  ( 99.8%)

Fock matrix formation       ....     334.309 sec  ( 93.2%)
  Split-RI-J                ....      19.519 sec  (  5.8% of F)
  Chain of spheres X        ....     297.609 sec  ( 89.0% of F)
  XC integration            ....      17.139 sec  (  5.1% of F)
    Basis function eval.    ....       5.516 sec  ( 32.2% of XC)
    Density eval.           ....       6.452 sec  ( 37.6% of XC)
    XC-Functional eval.     ....       1.083 sec  (  6.3% of XC)
    XC-Potential eval.      ....       3.349 sec  ( 19.5% of XC)
Diagonalization             ....       0.065 sec  (  0.0%)
Density matrix formation    ....       0.023 sec  (  0.0%)
Population analysis         ....       0.057 sec  (  0.0%)
Initial guess               ....       0.081 sec  (  0.0%)
Orbital Transformation      ....       0.000 sec  (  0.0%)
Orbital Orthonormalization  ....       0.067 sec  (  0.0%)
DIIS solution               ....       0.019 sec  (  0.0%)
SOSCF solution              ....       0.046 sec  (  0.0%)
Grid generation             ....      23.281 sec  (  6.5%)

Maximum memory used throughout the entire SCF-calculation: 171.4 MB

-------------------------   --------------------
FINAL SINGLE POINT ENERGY     -1084.758322813947
-------------------------   --------------------


                            ***************************************
                            *     ORCA property calculations      *
                            ***************************************

                                    ---------------------
                                    Active property flags
                                    ---------------------
   (+) Dipole Moment
   (+) Polarizability


------------------------------------------------------------------------------
                       ORCA ELECTRIC PROPERTIES CALCULATION
------------------------------------------------------------------------------

Dipole Moment Calculation                       ... on
Quadrupole Moment Calculation                   ... off
Polarizability Calculation                      ... Analytic (CP-SCF)
GBWName                                         ... 60.gbw
Electron density                                ... 60.scfp
The origin for moment calculation is the CENTER OF MASS  = ( 0.145061, -0.076966 -0.166686)

-------------
DIPOLE MOMENT
-------------
                                X             Y             Z
Electronic contribution:      6.60461      -1.29846      -0.03137
Nuclear contribution   :     -6.27614       1.12561       0.98608
                        -----------------------------------------
Total Dipole Moment    :      0.32847      -0.17285       0.95471
                        -----------------------------------------
Magnitude (a.u.)       :      1.02433
Magnitude (Debye)      :      2.60363



--------------------
Rotational spectrum 
--------------------
 
Rotational constants in cm-1:     0.016466     0.005212     0.004749 
Rotational constants in MHz :   493.639076   156.262066   142.376349 

 Dipole components along the rotational axes: 
x,y,z [a.u.] :     0.304807    -0.517923     0.829513 
x,y,z [Debye]:     0.774759    -1.316455     2.108455 

 
Transforming and storing MO dipole integrals   ... done

                ... starting polarizability calculation

The origin for moment calculation is the CENTER OF MASS  = ( 0.145061, -0.076966 -0.166686)
Opening the Dipole integral file               ... (60.dmo.tmp) done
Reading Dipole-MO integrals                    ... done
Solving CP-SCF equations                       ... 
------------------------------------------------------------------------------
                           ORCA CP-SCF CALCULATION
------------------------------------------------------------------------------

Input orbitals are from        ... 60.gbw
Input Perturbation             ... 60.cpv.tmp
Wavefunction output            ... 60.cpu.tmp
Perturbation mode              ... Real perturbation (singlet)
Solver                         ... POPLE
Max. number of iterations      ... 64
Convergence tolerance          ... 1.000e-04
Integral handling              ... Direct
DFT GridXC                     ... 1
COSX GridX                     ... 1
COSX IntAccX                   ... 3.067
COSX Algorithm                 ... Auto
Number of perturbations        ... 3
Number of operators            ... 1
Orbital ranges used for CP-SCF:
 Operator 0:  Orbitals   0... 83  to  84...416
Variables per perturbation     ... 27972
DFT calculation                         ... on
XC functional terms                     ... on
Exchange functional (SCF)               ... B88
Exchange functional (CP-SCF)            ... B88
   X-Alpha parameter    XAlpha (SCF)    ...  0.666667
   X-Alpha parameter    XAlpha (CP-SCF) ...  0.666667
   Becke's b parameter  XBeta (SCF)     ...  0.004200
   Becke's b parameter  XBeta (CP-SCF)  ...  0.004200
Correlation functional (SCF)            ... LYP
Correlation functional (CP-SCF)         ... LYP
 LDA part of GGA corr.  LDAOpt (SCF)    ... VWN-5
 LDA part of GGA corr.  LDAOpt (CP-SCF) ... VWN-5
Hybrid DFT                              ... on
   Exchange mixing (SCF)                ...  0.200
   Exchange mixing (CP-SCF)             ...  0.200
   GGA exch. scaling(SCF)               ...  0.720
   GGA exch. scaling (CP-SCF)           ...  0.720
   GGA corr. scaling (SCF)              ...  0.810
   GGA corr. scaling (CP-SCF)           ...  0.810

CP-SCF GRID
-----------

General Integration Accuracy     IntAcc      ... 3.467
Radial Grid Type                 RadialGrid  ... OptM3 with GC (2021)
Angular Grid (max. ang.)         AngularGrid ... 1 (Lebedev-50)
Angular grid pruning method      GridPruning ... 4 (adaptive)
Weight generation scheme         WeightScheme... Becke
Basis function cutoff            BFCut       ... 1.0000e-11
Integration weight cutoff        WCut        ... 1.0000e-14
Angular grids for H and He will be reduced by one unit
Partially contracted basis set               ... off
Rotationally invariant grid construction     ... off

Total number of grid points                  ...    28595
Total number of batches                      ...      467
Average number of points per batch           ...       61
Average number of grid points per atom       ...      681

CP-SCF GRIDX
------------

General Integration Accuracy     IntAcc      ... 3.067
Radial Grid Type                 RadialGrid  ... OptM3 with GC (2021)
Angular Grid (max. ang.)         AngularGrid ... 1 (Lebedev-50)
Angular grid pruning method      GridPruning ... 4 (adaptive)
Weight generation scheme         WeightScheme... Becke
Basis function cutoff            BFCut       ... 1.0000e-11
Integration weight cutoff        WCut        ... 1.0000e-14
Angular grids for H and He will be reduced by one unit
Partially contracted basis set               ... on
Rotationally invariant grid construction     ... off

Total number of grid points                  ...    13312
Total number of batches                      ...      232
Average number of points per batch           ...       57
Average number of grid points per atom       ...      317

Recalculating density on grid  ... done
Calculating the xc-kernel      ... done
Memory available               ... 933.9 MB
Memory needed per perturbation ...  34.8 MB
Perturbations treated per batch... 3
Number of batches              ... 1
     CP-SCF ITERATION   0:   1.7674e+01 (  43.8 sec   0/  3 done)
     CP-SCF ITERATION   1:   1.2302e+00 (  40.0 sec   0/  3 done)
     CP-SCF ITERATION   2:   4.9006e-01 (  42.0 sec   0/  3 done)
     CP-SCF ITERATION   3:   1.5086e-01 (  42.1 sec   0/  3 done)
     CP-SCF ITERATION   4:   5.7772e-02 (  42.5 sec   0/  3 done)
     CP-SCF ITERATION   5:   1.9113e-02 (  41.6 sec   0/  3 done)
     CP-SCF ITERATION   6:   7.0435e-03 (  41.2 sec   0/  3 done)
     CP-SCF ITERATION   7:   2.5869e-03 (  41.2 sec   0/  3 done)
     CP-SCF ITERATION   8: 