
                                 *****************
                                 * O   R   C   A *
                                 *****************

                                            #,                                       
                                            ###                                      
                                            ####                                     
                                            #####                                    
                                            ######                                   
                                           ########,                                 
                                     ,,################,,,,,                         
                               ,,#################################,,                 
                          ,,##########################################,,             
                       ,#########################################, ''#####,          
                    ,#############################################,,   '####,        
                  ,##################################################,,,,####,       
                ,###########''''           ''''###############################       
              ,#####''   ,,,,##########,,,,          '''####'''          '####       
            ,##' ,,,,###########################,,,                        '##       
           ' ,,###''''                  '''############,,,                           
         ,,##''                                '''############,,,,        ,,,,,,###''
      ,#''                                            '''#######################'''  
     '                                                          ''''####''''         
             ,#######,   #######,   ,#######,      ##                                
            ,#'     '#,  ##    ##  ,#'     '#,    #''#        ######   ,####,        
            ##       ##  ##   ,#'  ##            #'  '#       #        #'  '#        
            ##       ##  #######   ##           ,######,      #####,   #    #        
            '#,     ,#'  ##    ##  '#,     ,#' ,#      #,         ##   #,  ,#        
             '#######'   ##     ##  '#######'  #'      '#     #####' # '####'        



                  #######################################################
                  #                        -***-                        #
                  #          Department of theory and spectroscopy      #
                  #    Directorship and core code : Frank Neese         #
                  #        Max Planck Institute fuer Kohlenforschung    #
                  #                Kaiser Wilhelm Platz 1               #
                  #                 D-45470 Muelheim/Ruhr               #
                  #                      Germany                        #
                  #                                                     #
                  #                  All rights reserved                #
                  #                        -***-                        #
                  #######################################################


                         Program Version 5.0.3 -  RELEASE  -


 With contributions from (in alphabetic order):
   Daniel Aravena         : Magnetic Suceptibility
   Michael Atanasov       : Ab Initio Ligand Field Theory (pilot matlab implementation)
   Alexander A. Auer      : GIAO ZORA, VPT2 properties, NMR spectrum
   Ute Becker             : Parallelization
   Giovanni Bistoni       : ED, misc. LED, open-shell LED, HFLD
   Martin Brehm           : Molecular dynamics
   Dmytro Bykov           : SCF Hessian
   Vijay G. Chilkuri      : MRCI spin determinant printing, contributions to CSF-ICE
   Dipayan Datta          : RHF DLPNO-CCSD density
   Achintya Kumar Dutta   : EOM-CC, STEOM-CC
   Dmitry Ganyushin       : Spin-Orbit,Spin-Spin,Magnetic field MRCI
   Miquel Garcia          : C-PCM and meta-GGA Hessian, CC/C-PCM, Gaussian charge scheme
   Yang Guo               : DLPNO-NEVPT2, F12-NEVPT2, CIM, IAO-localization
   Andreas Hansen         : Spin unrestricted coupled pair/coupled cluster methods
   Benjamin Helmich-Paris : MC-RPA, TRAH-SCF, COSX integrals
   Lee Huntington         : MR-EOM, pCC
   Robert Izsak           : Overlap fitted RIJCOSX, COSX-SCS-MP3, EOM
   Marcus Kettner         : VPT2
   Christian Kollmar      : KDIIS, OOCD, Brueckner-CCSD(T), CCSD density, CASPT2, CASPT2-K
   Simone Kossmann        : Meta GGA functionals, TD-DFT gradient, OOMP2, MP2 Hessian
   Martin Krupicka        : Initial AUTO-CI
   Lucas Lang             : DCDCAS
   Marvin Lechner         : AUTO-CI (C++ implementation), FIC-MRCC
   Dagmar Lenk            : GEPOL surface, SMD
   Dimitrios Liakos       : Extrapolation schemes; Compound Job, initial MDCI parallelization
   Dimitrios Manganas     : Further ROCIS development; embedding schemes
   Dimitrios Pantazis     : SARC Basis sets
   Anastasios Papadopoulos: AUTO-CI, single reference methods and gradients
   Taras Petrenko         : DFT Hessian,TD-DFT gradient, ASA, ECA, R-Raman, ABS, FL, XAS/XES, NRVS
   Peter Pinski           : DLPNO-MP2, DLPNO-MP2 Gradient
   Christoph Reimann      : Effective Core Potentials
   Marius Retegan         : Local ZFS, SOC
   Christoph Riplinger    : Optimizer, TS searches, QM/MM, DLPNO-CCSD(T), (RO)-DLPNO pert. Triples
   Tobias Risthaus        : Range-separated hybrids, TD-DFT gradient, RPA, STAB
   Michael Roemelt        : Original ROCIS implementation
   Masaaki Saitow         : Open-shell DLPNO-CCSD energy and density
   Barbara Sandhoefer     : DKH picture change effects
   Avijit Sen             : IP-ROCIS
   Kantharuban Sivalingam : CASSCF convergence, NEVPT2, FIC-MRCI
   Bernardo de Souza      : ESD, SOC TD-DFT
   Georgi Stoychev        : AutoAux, RI-MP2 NMR, DLPNO-MP2 response
   Willem Van den Heuvel  : Paramagnetic NMR
   Boris Wezisla          : Elementary symmetry handling
   Frank Wennmohs         : Technical directorship


 We gratefully acknowledge several colleagues who have allowed us to
 interface, adapt or use parts of their codes:
   Stefan Grimme, W. Hujo, H. Kruse, P. Pracht,  : VdW corrections, initial TS optimization,
                  C. Bannwarth, S. Ehlert          DFT functionals, gCP, sTDA/sTD-DF
   Ed Valeev, F. Pavosevic, A. Kumar             : LibInt (2-el integral package), F12 methods
   Garnet Chan, S. Sharma, J. Yang, R. Olivares  : DMRG
   Ulf Ekstrom                                   : XCFun DFT Library
   Mihaly Kallay                                 : mrcc  (arbitrary order and MRCC methods)
   Jiri Pittner, Ondrej Demel                    : Mk-CCSD
   Frank Weinhold                                : gennbo (NPA and NBO analysis)
   Christopher J. Cramer and Donald G. Truhlar   : smd solvation model
   Lars Goerigk                                  : TD-DFT with DH, B97 family of functionals
   V. Asgeirsson, H. Jonsson                     : NEB implementation
   FAccTs GmbH                                   : IRC, NEB, NEB-TS, DLPNO-Multilevel, CI-OPT
                                                   MM, QMMM, 2- and 3-layer-ONIOM, Crystal-QMMM,
                                                   LR-CPCM, SF, NACMEs, symmetry and pop. for TD-DFT,
                                                   nearIR, NL-DFT gradient (VV10), updates on ESD,
                                                   ML-optimized integration grids
   S Lehtola, MJT Oliveira, MAL Marques          : LibXC Library
   Liviu Ungur et al                             : ANISO software


 Your calculation uses the libint2 library for the computation of 2-el integrals
 For citations please refer to: http://libint.valeyev.net

 Your ORCA version has been built with support for libXC version: 5.1.0
 For citations please refer to: https://tddft.org/programs/libxc/

 This ORCA versions uses:
   CBLAS   interface :  Fast vector & matrix operations
   LAPACKE interface :  Fast linear algebra routines
   SCALAPACK package :  Parallel linear algebra routines
   Shared memory     :  Shared parallel matrices
   BLAS/LAPACK       :  OpenBLAS 0.3.15  USE64BITINT DYNAMIC_ARCH NO_AFFINITY Zen SINGLE_THREADED
        Core in use  :  Zen
   Copyright (c) 2011-2014, The OpenBLAS Project




***************************************
The coordinates will be read from file: _8.xyz
***************************************


================================================================================

----- Orbital basis set information -----
Your calculation utilizes the basis: def2-SVP
   F. Weigend and R. Ahlrichs, Phys. Chem. Chem. Phys. 7, 3297 (2005).

----- AuxJ basis set information -----
Your calculation utilizes the auxiliary basis: def2/J
   F. Weigend, Phys. Chem. Chem. Phys. 8, 1057 (2006).

================================================================================
                                        WARNINGS
                       Please study these warnings very carefully!
================================================================================


INFO   : the flag for use of the SHARK integral package has been found!

================================================================================
                                       INPUT FILE
================================================================================
NAME = 8.inp
|  1> ! B3LYP DEF2-SVP TightSCF
|  2> %elprop
|  3> Polar 1
|  4> end
|  5> * xyzfile 0 1 _8.xyz
|  6> 
|  7>                          ****END OF INPUT****
================================================================================

                       ****************************
                       * Single Point Calculation *
                       ****************************

---------------------------------
CARTESIAN COORDINATES (ANGSTROEM)
---------------------------------
  C      9.964279   -2.842596    4.493106
  C     10.802599   -3.021955    3.237554
  C     10.023745   -3.916794    2.305979
  C     10.723947   -4.193870    1.020742
  C     11.044233   -3.026770    0.167897
  C      9.826884   -2.236115   -0.302486
  C     10.357451   -1.108125   -1.134632
  C      9.305815   -0.211624   -1.733665
  C      8.409553   -1.023415   -2.641071
  C      7.380768   -0.072096   -3.291904
  C      6.479055   -0.791089   -4.205760
  C      5.598212   -1.866013   -3.798844
  C      4.415522   -1.845919   -2.993791
  C      4.216784   -1.420120   -1.622038
  C      4.379014   -0.013085   -1.197047
  C      4.028811    0.086257    0.299651
  C      2.603136   -0.301150    0.505728
  C      1.735373    0.651483   -0.276797
  O      0.593165    0.319932   -0.651834
  O      2.190096    1.887780   -0.580149
  C      1.591842    2.917214   -1.256373
  C      0.419829    3.530145   -0.613617
  C     -0.119095    4.717551   -1.438300
  O     -1.174140    5.292499   -0.728818
  C     -1.058567    5.889244    0.490339
  O      0.055536    5.967836    1.057573
  C     -2.236083    6.471638    1.204272
  C     -3.470563    6.158263    0.425900
  C     -4.682009    6.726409    1.126431
  C     -4.594893    8.211358    1.263472
  C     -4.508950    8.835073   -0.113593
  O     -0.666446    2.675799   -0.446894
  C     -1.277558    2.406212    0.768065
  O     -0.807756    2.936731    1.800194
  C     -2.497715    1.493047    0.843702
  C     -2.925013    1.267528   -0.542299
  C     -4.118960    0.468417   -0.859809
  C     -5.417647    1.034847   -0.458327
  C     -5.729507    1.307830    0.957409
  C     -5.644801    0.123552    1.858978
  C     -6.577684   -0.954885    1.409618
  C     -7.994428   -0.502015    1.397643
  C     -8.935727   -1.644646    0.943077
  C     -8.841196   -2.813539    1.853967
  C     -9.811074   -3.927105    1.413812
  C     -9.476787   -4.389021    0.053484
  C    -10.317359   -5.432317   -0.583659
  C    -10.393227   -6.734739    0.109234
  C    -11.003864   -6.741586    1.457343
  H      9.046748   -2.257178    4.293211
  H     10.542733   -2.382625    5.314749
  H      9.709937   -3.873888    4.873870
  H     11.762755   -3.443561    3.544302
  H     10.894180   -2.006207    2.774959
  H      9.946423   -4.910084    2.840490
  H      8.999920   -3.531236    2.228386
  H     10.056064   -4.872738    0.427909
  H     11.651008   -4.788850    1.180484
  H     11.488608   -3.435384   -0.790716
  H     11.818830   -2.345631    0.556808
  H      9.205730   -1.907524    0.538879
  H      9.185459   -2.857053   -0.968473
  H     10.953803   -1.497600   -2.001148
  H     11.067938   -0.523498   -0.517749
  H      8.732991    0.358148   -0.994603
  H      9.859405    0.522678   -2.380302
  H      8.994540   -1.494683   -3.449362
  H      7.848028   -1.782840   -2.067129
  H      6.989536    0.571021   -2.524738
  H      8.089592    0.591156   -3.953013
  H      7.180911   -1.246099   -5.012264
  H      5.921789   -0.027539   -4.870307
  H      5.280627   -2.448820   -4.786890
  H      6.286424   -2.718325   -3.369578
  H      3.550963   -1.336202   -3.638591
  H      3.967186   -2.942385   -3.094378
  H      3.151313   -1.757615   -1.339154
  H      4.823678   -2.032153   -0.874613
  H      5.366699    0.431433   -1.290162
  H      3.606077    0.590599   -1.764563
  H      4.711773   -0.573937    0.880077
  H      4.140274    1.151040    0.590257
  H      2.355608   -1.351021    0.346679
  H      2.345329   -0.016809    1.593952
  H      2.366315    3.688970   -1.558217
  H      1.236063    2.554228   -2.288627
  H      0.712067    3.913713    0.388559
  H      0.675732    5.394275   -1.754731
  H     -0.574796    4.293198   -2.381969
  H     -2.057154    7.564851    1.308882
  H     -2.289261    6.056678    2.218552
  H     -3.544110    5.040893    0.348249
  H     -3.355067    6.556011   -0.608841
  H     -4.714955    6.247651    2.146341
  H     -5.595879    6.396198    0.606413
  H     -5.513063    8.614635    1.747251
  H     -3.753605    8.485748    1.894514
  H     -5.105848    8.278684   -0.859458
  H     -4.929248    9.862646   -0.056473
  H     -3.465754    8.910252   -0.466891
  H     -3.191830    2.020664    1.490614
  H     -2.198239    0.559615    1.386414
  H     -3.006853    2.319449   -1.011248
  H     -2.006901    0.881284   -1.113696
  H     -4.133321    0.360322   -2.005906
  H     -4.004100   -0.610931   -0.525775
  H     -6.245165    0.434691   -0.962788
  H     -5.529264    2.051864   -0.991611
  H     -5.282376    2.234334    1.324148
  H     -6.855327    1.577529    0.955774
  H     -6.022376    0.463045    2.870529
  H     -4.611023   -0.255406    2.006846
  H     -6.248503   -1.405173    0.449805
  H     -6.514360   -1.774622    2.183726
  H     -8.303386   -0.129726    2.372953
  H     -8.224273    0.297538    0.640372
  H     -9.941822   -1.192104    0.883926
  H     -8.601328   -1.912181   -0.088389
  H     -9.017978   -2.562897    2.916243
  H     -7.839194   -3.279191    1.818321
  H     -9.763010   -4.727421    2.210984
  H    -10.816668   -3.481804    1.501907
  H     -9.586430   -3.474301   -0.626828
  H     -8.392895   -4.672560   -0.049836
  H    -11.357434   -5.014555   -0.781674
  H     -9.923186   -5.667155   -1.633421
  H     -9.315413   -7.083336    0.249920
  H    -10.906634   -7.499136   -0.542015
  H    -11.688900   -7.668120    1.514607
  H    -11.664509   -5.907710    1.689867
  H    -10.296220   -6.941282    2.291911

----------------------------
CARTESIAN COORDINATES (A.U.)
----------------------------
  NO LB      ZA    FRAG     MASS         X           Y           Z
   0 C     6.0000    0    12.011   18.829758   -5.371728    8.490740
   1 C     6.0000    0    12.011   20.413954   -5.710667    6.118090
   2 C     6.0000    0    12.011   18.942133   -7.401668    4.357669
   3 C     6.0000    0    12.011   20.265323   -7.925266    1.928923
   4 C     6.0000    0    12.011   20.870576   -5.719766    0.317279
   5 C     6.0000    0    12.011   18.570120   -4.225645   -0.571616
   6 C     6.0000    0    12.011   19.572746   -2.094053   -2.144144
   7 C     6.0000    0    12.011   17.585442   -0.399911   -3.276152
   8 C     6.0000    0    12.011   15.891752   -1.933974   -4.990901
   9 C     6.0000    0    12.011   13.947630   -0.136242   -6.220797
  10 C     6.0000    0    12.011   12.243640   -1.494942   -7.947735
  11 C     6.0000    0    12.011   10.579088   -3.526254   -7.178775
  12 C     6.0000    0    12.011    8.344127   -3.488281   -5.657445
  13 C     6.0000    0    12.011    7.968567   -2.683638   -3.065208
  14 C     6.0000    0    12.011    8.275137   -0.024727   -2.262091
  15 C     6.0000    0    12.011    7.613349    0.163002    0.566258
  16 C     6.0000    0    12.011    4.919214   -0.569091    0.955687
  17 C     6.0000    0    12.011    3.279380    1.231124   -0.523071
  18 O     8.0000    0    15.999    1.120919    0.604584   -1.231788
  19 O     8.0000    0    15.999    4.138682    3.567387   -1.096323
  20 C     6.0000    0    12.011    3.008145    5.512736   -2.374201
  21 C     6.0000    0    12.011    0.793362    6.671007   -1.159568
  22 C     6.0000    0    12.011   -0.225057    8.914879   -2.717993
  23 O     8.0000    0    15.999   -2.218803   10.001374   -1.377266
  24 C     6.0000    0    12.011   -2.000402   11.129058    0.926606
  25 O     8.0000    0    15.999    0.104948   11.277576    1.998523
  26 C     6.0000    0    12.011   -4.225584   12.229623    2.275744
  27 C     6.0000    0    12.011   -6.558414   11.637431    0.804834
  28 C     6.0000    0    12.011   -8.847715   12.711071    2.128646
  29 C     6.0000    0    12.011   -8.683089   15.517218    2.387616
  30 C     6.0000    0    12.011   -8.520681   16.695868   -0.214660
  31 O     8.0000    0    15.999   -1.259400    5.056527   -0.844507
  32 C     6.0000    0    12.011   -2.414235    4.547082    1.451433
  33 O     8.0000    0    15.999   -1.526438    5.549617    3.401874
  34 C     6.0000    0    12.011   -4.719997    2.821450    1.594366
  35 C     6.0000    0    12.011   -5.527474    2.395281   -1.024797
  36 C     6.0000    0    12.011   -7.783706    0.885180   -1.624804
  37 C     6.0000    0    12.011  -10.237869    1.955577   -0.866113
  38 C     6.0000    0    12.011  -10.827199    2.471441    1.809241
  39 C     6.0000    0    12.011  -10.667128    0.233479    3.512959
  40 C     6.0000    0    12.011  -12.430021   -1.804471    2.663792
  41 C     6.0000    0    12.011  -15.107280   -0.948671    2.641163
  42 C     6.0000    0    12.011  -16.886077   -3.107931    1.782157
  43 C     6.0000    0    12.011  -16.707439   -5.316818    3.503490
  44 C     6.0000    0    12.011  -18.540243   -7.421153    2.671717
  45 C     6.0000    0    12.011  -17.908532   -8.294048    0.101070
  46 C     6.0000    0    12.011  -19.496983  -10.265591   -1.102956
  47 C     6.0000    0    12.011  -19.640353  -12.726812    0.206422
  48 C     6.0000    0    12.011  -20.794289  -12.739751    2.753979
  49 H     1.0000    0     1.008   17.095876   -4.265448    8.112993
  50 H     1.0000    0     1.008   19.922878   -4.502509   10.043420
  51 H     1.0000    0     1.008   18.349122   -7.320587    9.210280
  52 H     1.0000    0     1.008   22.228386   -6.507387    6.697760
  53 H     1.0000    0     1.008   20.587017   -3.791182    5.243913
  54 H     1.0000    0     1.008   18.796015   -9.278714    5.367748
  55 H     1.0000    0     1.008   17.007384   -6.673069    4.211039
  56 H     1.0000    0     1.008   19.003207   -9.208140    0.808631
  57 H     1.0000    0     1.008   22.017214   -9.049615    2.230791
  58 H     1.0000    0     1.008   21.710323   -6.491935   -1.494237
  59 H     1.0000    0     1.008   22.334352   -4.432600    1.052215
  60 H     1.0000    0     1.008   17.396309   -3.604698    1.018334
  61 H     1.0000    0     1.008   17.358002   -5.399048   -1.830149
  62 H     1.0000    0     1.008   20.699688   -2.830054   -3.781622
  63 H     1.0000    0     1.008   20.915372   -0.989268   -0.978404
  64 H     1.0000    0     1.008   16.502961    0.676802   -1.879527
  65 H     1.0000    0     1.008   18.631575    0.987718   -4.498119
  66 H     1.0000    0     1.008   16.997217   -2.824542   -6.518350
  67 H     1.0000    0     1.008   14.830624   -3.369079   -3.906308
  68 H     1.0000    0     1.008   13.208309    1.079073   -4.771063
  69 H     1.0000    0     1.008   15.287113    1.117123   -7.470112
  70 H     1.0000    0     1.008   13.569955   -2.354786   -9.471806
  71 H     1.0000    0     1.008   11.190559   -0.052041   -9.203546
  72 H     1.0000    0     1.008    9.978939   -4.627599   -9.045911
  73 H     1.0000    0     1.008   11.879620   -5.136890   -6.367580
  74 H     1.0000    0     1.008    6.710348   -2.525056   -6.875941
  75 H     1.0000    0     1.008    7.496895   -5.560302   -5.847527
  76 H     1.0000    0     1.008    5.955119   -3.321411   -2.530634
  77 H     1.0000    0     1.008    9.115430   -3.840213   -1.652779
  78 H     1.0000    0     1.008   10.141591    0.815290   -2.438053
  79 H     1.0000    0     1.008    6.814498    1.116070   -3.334541
  80 H     1.0000    0     1.008    8.903961   -1.084584    1.663105
  81 H     1.0000    0     1.008    7.823984    2.175150    1.115424
  82 H     1.0000    0     1.008    4.451454   -2.553060    0.655128
  83 H     1.0000    0     1.008    4.432030   -0.031764    3.012133
  84 H     1.0000    0     1.008    4.471687    6.971143   -2.944603
  85 H     1.0000    0     1.008    2.335821    4.826791   -4.324878
  86 H     1.0000    0     1.008    1.345612    7.395846    0.734270
  87 H     1.0000    0     1.008    1.276948   10.193702   -3.315961
  88 H     1.0000    0     1.008   -1.086207    8.112968   -4.501269
  89 H     1.0000    0     1.008   -3.887458   14.295497    2.473429
  90 H     1.0000    0     1.008   -4.326076   11.445463    4.192456
  91 H     1.0000    0     1.008   -6.697397    9.525907    0.658095
  92 H     1.0000    0     1.008   -6.340158   12.389065   -1.150543
  93 H     1.0000    0     1.008   -8.909974   11.806349    4.055997
  94 H     1.0000    0     1.008  -10.574679   12.087063    1.145954
  95 H     1.0000    0     1.008  -10.418179   16.279301    3.301826
  96 H     1.0000    0     1.008   -7.093285   16.035740    3.580113
  97 H     1.0000    0     1.008   -9.648654   15.644446   -1.624140
  98 H     1.0000    0     1.008   -9.314929   18.637700   -0.106719
  99 H     1.0000    0     1.008   -6.549326   16.837936   -0.882296
 100 H     1.0000    0     1.008   -6.031685    3.818502    2.816852
 101 H     1.0000    0     1.008   -4.154070    1.057519    2.619943
 102 H     1.0000    0     1.008   -5.682129    4.383123   -1.910982
 103 H     1.0000    0     1.008   -3.792493    1.665385   -2.104580
 104 H     1.0000    0     1.008   -7.810845    0.680910   -3.790613
 105 H     1.0000    0     1.008   -7.566652   -1.154492   -0.993571
 106 H     1.0000    0     1.008  -11.801652    0.821447   -1.819406
 107 H     1.0000    0     1.008  -10.448795    3.877461   -1.873873
 108 H     1.0000    0     1.008   -9.982244    4.222279    2.502277
 109 H     1.0000    0     1.008  -12.954691    2.981098    1.806151
 110 H     1.0000    0     1.008  -11.380641    0.875028    5.424514
 111 H     1.0000    0     1.008   -8.713571   -0.482647    3.792389
 112 H     1.0000    0     1.008  -11.807959   -2.655392    0.850008
 113 H     1.0000    0     1.008  -12.310356   -3.353550    4.126644
 114 H     1.0000    0     1.008  -15.691126   -0.245147    4.484231
 115 H     1.0000    0     1.008  -15.541624    0.562265    1.210128
 116 H     1.0000    0     1.008  -18.787321   -2.252750    1.670378
 117 H     1.0000    0     1.008  -16.254154   -3.613498   -0.167031
 118 H     1.0000    0     1.008  -17.041509   -4.843173    5.510901
 119 H     1.0000    0     1.008  -14.813930   -6.196773    3.436129
 120 H     1.0000    0     1.008  -18.449415   -8.933531    4.178154
 121 H     1.0000    0     1.008  -20.440540   -6.579656    2.838193
 122 H     1.0000    0     1.008  -18.115727   -6.565477   -1.184533
 123 H     1.0000    0     1.008  -15.860273   -8.829859   -0.094176
 124 H     1.0000    0     1.008  -21.462440   -9.476136   -1.477150
 125 H     1.0000    0     1.008  -18.752104  -10.709371   -3.086718
 126 H     1.0000    0     1.008  -17.603579  -13.385565    0.472280
 127 H     1.0000    0     1.008  -20.610551  -14.171313   -1.024260
 128 H     1.0000    0     1.008  -22.088820  -14.490647    2.862192
 129 H     1.0000    0     1.008  -22.042727  -11.163954    3.193386
 130 H     1.0000    0     1.008  -19.457036  -13.117122    4.331084

--------------------------------
INTERNAL COORDINATES (ANGSTROEM)
--------------------------------
 C      0   0   0     0.000000000000     0.00000000     0.00000000
 C      1   0   0     1.520316052005     0.00000000     0.00000000
 C      2   1   0     1.508370766709   107.17624284     0.00000000
 C      3   2   1     1.489593265542   113.60974398   180.25585895
 C      4   3   2     1.480557369986   116.87626440   299.67564312
 C      5   4   3     1.525887965584   114.42134695   298.88477669
 C      6   5   4     1.498776082977   106.18305153   179.71928454
 C      7   6   5     1.506151670512   114.93705932   178.55043539
 C      8   7   6     1.511845180288   109.45289647   299.50948858
 C      9   8   7     1.544988676293   108.47939694   182.52168898
 C     10   9   8     1.471451683595   111.64226938   179.32302889
 C     11  10   9     1.448076872090   124.12182954    60.63907791
 C     12  11  10     1.430828339720   130.57750918    70.03847138
 C     13  12  11     1.450002715188   130.51896861   300.30899932
 C     14  13  12     1.478743863624   122.42991286    65.70155010
 C     15  14  13     1.540329795004   108.40203607   177.37504428
 C     16  15  14     1.491677283866   109.55940613   297.86895413
 C     17  16  15     1.507603274235   108.31896285   299.31358681
 O     18  17  16     1.247083771137   121.01664937   155.60021313
 O     18  17  16     1.351749131622   120.05115585   335.45210275
 C     20  18  17     1.369277585827   130.65095467   180.77498029
 C     21  20  18     1.470521730022   116.46959924    66.08179151
 C     22  21  20     1.542878523119   111.44091338   177.22959740
 O     23  22  21     1.395367286077   108.02548999   183.46473592
 C     24  23  22     1.362279524915   124.84679260    63.54448116
 O     25  24  23     1.252659813289   120.54312681     0.74761358
 C     25  24  23     1.495134452142   122.08340443   180.78005671
 C     27  25  24     1.492651242390   108.69702343     5.33771303
 C     28  27  25     1.510342666481   110.03067578   179.64041577
 C     29  28  27     1.493801514840   111.69803283    60.38293859
 C     30  29  28     1.514171263332   109.22960395    60.33773366
 O     22  21  20     1.392011861325   114.73908435   296.76683695
 C     32  22  21     1.386456057289   124.62886879   123.77543510
 O     33  32  22     1.251980271892   118.33532132   358.13209664
 C     33  32  22     1.525901169029   120.81420725   177.73643757
 C     35  33  32     1.467801475734   106.13638968   349.67858283
 C     36  35  33     1.471360061042   121.56329300   182.50152360
 C     37  36  35     1.472623056044   116.60776422    67.27955004
 C     38  37  36     1.475155856032   121.28303157   298.84418518
 C     39  38  37     1.490810567940   114.92145363   301.90292702
 C     40  39  38     1.495065705666   110.84223713   301.27118944
 C     41  40  39     1.487413257659   112.15578067   300.17246427
 C     42  41  40     1.548638000928   110.89537923   180.61182287
 C     43  42  41     1.484913313130   111.22625676    60.07974599
 C     44  43  42     1.540918231207   110.70607080   178.40473401
 C     45  44  43     1.474993714227   110.31023176    60.83372651
 C     46  45  44     1.483569692751   119.20253382   181.97321430
 C     47  46  45     1.477213501481   116.59491820   299.68444594
 C     48  47  46     1.479973750801   116.90620634    63.42238851
 H      1   2   3     1.106587268005   111.74245092   292.19589675
 H      1   2   3     1.105115184226   111.99265268   167.77537403
 H      1   2   3     1.128376827981   107.16621021    53.93837096
 H      2   1   3     1.092586609416   107.35189339   237.77231520
 H      2   1   3     1.119877320553   106.21407192   116.38231535
 H      3   2   1     1.130621831076   105.33872926   295.91070067
 H      3   2   1     1.096764913570   108.49107229    49.25027534
 H      4   3   2     1.121775569801   106.77875706   179.29355362
 H      4   3   2     1.113086162292   111.53724005    65.85711228
 H      5   4   3     1.132860726387   106.73574514   184.64127958
 H      5   4   3     1.102362288747   115.83992702    69.12456504
 H      6   5   4     1.096220507116   111.76344337    55.27549616
 H      6   5   4     1.113790247146   110.78731466   295.49034568
 H      7   6   5     1.121684653450   110.84226259    58.78897403
 H      7   6   5     1.107756806337   108.36407290   303.09581283
 H      8   7   6     1.094979500632   113.98816555    65.79045440
 H      8   7   6     1.124188918765   105.88651499   184.13870171
 H      9   8   7     1.103466201872   110.77440593   300.77962491
 H      9   8   7     1.105190515528   111.00663871    64.41181435
 H     10   9   8     1.074804924193   108.06765181   314.51936694
 H     10   9   8     1.174478517624   100.54276888    65.87169048
 H     11  10   9     1.161931429497   104.61161240   299.57933706
 H     11  10   9     1.155498469261   109.25882673   194.73114117
 H     12  11  10     1.190276912987   107.00794344   197.68815121
 H     12  11  10     1.176580129462   106.52595135   299.48538629
 H     13  12  11     1.192912706182   107.51368073    71.98820066
 H     13  12  11     1.188848435513   104.54614953   171.37916090
 H     14  13  12     1.152889710390   105.83286121   189.84160794
 H     14  13  12     1.140854438984   112.91358716   298.26501154
 H     15  14  13     1.087100876080   117.65402036   296.56771204
 H     15  14  13     1.133110933705   106.74734358    62.08398748
 H     16  15  14     1.113188013121   109.20219854    59.78285478
 H     16  15  14     1.109341554569   107.07370695   180.97776760
 H     17  16  15     1.090319133018   116.54517871    69.01789363
 H     17  16  15     1.153926222818   106.24950088   190.55113056
 H     21  20  18     1.134251097245   110.15952615   195.23019014
 H     21  20  18     1.150602387253   109.93655525   305.41865033
 H     22  21  20     1.112152954518   109.15939385    58.10154959
 H     23  22  21     1.090795081519   112.20946872   312.94817997
 H     23  22  21     1.130597210138   107.34141291    69.64940182
 H     27  25  24     1.112687513415   107.51495278   242.88152325
 H     27  25  24     1.097170734063   109.40713486   127.01064821
 H     28  27  25     1.122476973443   107.41278036    59.02864222
 H     28  27  25     1.114554500507   108.87485826   303.11135470
 H     29  28  27     1.127169494610   106.46052395   300.37185229
 H     29  28  27     1.102096366814   109.48435160   186.21707718
 H     30  29  28     1.113422924351   110.59858131   177.87610290
 H     30  29  28     1.086862170106   110.44884451   296.30232864
 H     31  30  29     1.105518222351   112.06302189    34.93290335
 H     31  30  29     1.111674130999   108.21399709   152.92236413
 H     31  30  29     1.103960711829   111.88444719   271.91753724
 H     35  33  32     1.085665909780   104.47407096   225.63718631
 H     35  33  32     1.120498767578   107.98839733   112.33458508
 H     36  35  33     1.154620604546   105.31772967   308.92333255
 H     36  35  33     1.148306842133   106.78563948    53.81510849
 H     37  36  35     1.151272817691   106.01798715   186.54443945
 H     37  36  35     1.135677611763   111.75461271   296.66577213
 H     38  37  36     1.139936035566   108.48381953   167.69961851
 H     38  37  36     1.153765035713   107.35872904    59.42185595
 H     39  38  37     1.092169074502   113.12247074    79.21188549
 H     39  38  37     1.157674779990   104.32056693   188.75677579
 H     40  39  38     1.131836473734   106.45438105   186.35445009
 H     40  39  38     1.110932520215   113.85008438    68.61144669
 H     41  40  39     1.110117295007   111.55715031    68.78510700
 H     41  40  39     1.129257222164   106.41509533   184.38278855
 H     42  41  40     1.088707371788   111.54324269   303.64804617
 H     42  41  40     1.124976929219   114.60860284    66.19227610
 H     43  42  41     1.104771583446   105.48679199   184.66728415
 H     43  42  41     1.116834713188   105.41701305   299.64786724
 H     44  43  42     1.105668841862   113.62397625    54.39907591
 H     44  43  42     1.105491035886   111.68449194   294.88181888
 H     45  44  43     1.130618877224   106.46228033   185.94673735
 H     45  44  43     1.103300957338   105.02228288   297.58850423
 H     46  45  44     1.145233025717   106.02334749   299.44207834
 H     46  45  44     1.125118329148   112.45411353    52.25387830
 H     47  46  45     1.138196395397   109.53269530    66.75167820
 H     47  46  45     1.145653305681   110.04328758   179.67242129
 H     48  47  46     1.141488255569   106.17481727   305.43092670
 H     48  47  46     1.127836327336   110.49295020   189.63196511
 H     49  48  47     1.153697854790   107.09274882   137.54141725
 H     49  48  47     1.088975853716   116.18482645    21.70211439
 H     49  48  47     1.112268973664   114.94848003   249.23269582

---------------------------
INTERNAL COORDINATES (A.U.)
---------------------------
 C      0   0   0     0.000000000000     0.00000000     0.00000000
 C      1   0   0     2.872980975294     0.00000000     0.00000000
 C      2   1   0     2.850407657493   107.17624284     0.00000000
 C      3   2   1     2.814923322808   113.60974398   180.25585895
 C      4   3   2     2.797847954833   116.87626440   299.67564312
 C      5   4   3     2.883510366001   114.42134695   298.88477669
 C      6   5   4     2.832276332898   106.18305153   179.71928454
 C      7   6   5     2.846214173416   114.93705932   178.55043539
 C      8   7   6     2.856973347634   109.45289647   299.50948858
 C      9   8   7     2.919605478204   108.47939694   182.52168898
 C     10   9   8     2.780640701292   111.64226938   179.32302889
 C     11  10   9     2.736468709115   124.12182954    60.63907791
 C     12  11  10     2.703873706723   130.57750918    70.03847138
 C     13  12  11     2.740108025148   130.51896861   300.30899932
 C     14  13  12     2.794420924466   122.42991286    65.70155010
 C     15  14  13     2.910801468477   108.40203607   177.37504428
 C     16  15  14     2.818861546699   109.55940613   297.86895413
 C     17  16  15     2.848957306906   108.31896285   299.31358681
 O     18  17  16     2.356646793507   121.01664937   155.60021313
 O     18  17  16     2.554435660532   120.05115585   335.45210275
 C     20  18  17     2.587559638530   130.65095467   180.77498029
 C     21  20  18     2.778883343721   116.46959924    66.08179151
 C     22  21  20     2.915617866603   111.44091338   177.22959740
 O     23  22  21     2.636862026918   108.02548999   183.46473592
 C     24  23  22     2.574335219938   124.84679260    63.54448116
 O     25  24  23     2.367183986085   120.54312681     0.74761358
 C     25  24  23     2.825394647938   122.08340443   180.78005671
 C     27  25  24     2.820702061575   108.69702343     5.33771303
 C     28  27  25     2.854134008025   110.03067578   179.64041577
 C     29  28  27     2.822875761484   111.69803283    60.38293859
 C     30  29  28     2.861369007550   109.22960395    60.33773366
 O     22  21  20     2.630521193075   114.73908435   296.76683695
 C     32  22  21     2.620022244993   124.62886879   123.77543510
 O     33  32  22     2.365899838948   118.33532132   358.13209664
 C     33  32  22     2.883535316894   120.81420725   177.73643757
 C     35  33  32     2.773742808102   106.13638968   349.67858283
 C     36  35  33     2.780467559759   121.56329300   182.50152360
 C     37  36  35     2.782854274422   116.60776422    67.27955004
 C     38  37  36     2.787640572750   121.28303157   298.84418518
 C     39  38  37     2.817223690962   114.92145363   301.90292702
 C     40  39  38     2.825264735926   110.84223713   301.27118944
 C     41  40  39     2.810803704940   112.15578067   300.17246427
 C     42  41  40     2.926501702337   110.89537923   180.61182287
 C     43  42  41     2.806079494429   111.22625676    60.07974599
 C     44  43  42     2.911913451747   110.70607080   178.40473401
 C     45  44  43     2.787334169144   110.31023176    60.83372651
 C     46  45  44     2.803540419885   119.20253382   181.97321430
 C     47  46  45     2.791528959129   116.59491820   299.68444594
 C     48  47  46     2.796745074405   116.90620634    63.42238851
 H      1   2   3     2.091146879813   111.74245092   292.19589675
 H      1   2   3     2.088365044624   111.99265268   167.77537403
 H      1   2   3     2.132323180746   107.16621021    53.93837096
 H      2   1   3     2.064689469387   107.35189339   237.77231520
 H      2   1   3     2.116261439436   106.21407192   116.38231535
 H      3   2   1     2.136565621766   105.33872926   295.91070067
 H      3   2   1     2.072585319941   108.49107229    49.25027534
 H      4   3   2     2.119848610647   106.77875706   179.29355362
 H      4   3   2     2.103428010189   111.53724005    65.85711228
 H      5   4   3     2.140796520746   106.73574514   184.64127958
 H      5   4   3     2.083162826094   115.83992702    69.12456504
 H      6   5   4     2.071556540838   111.76344337    55.27549616
 H      6   5   4     2.104758537739   110.78731466   295.49034568
 H      7   6   5     2.119676803643   110.84226259    58.78897403
 H      7   6   5     2.093356986965   108.36407290   303.09581283
 H      8   7   6     2.069211378452   113.98816555    65.79045440
 H      8   7   6     2.124409179254   105.88651499   184.13870171
 H      9   8   7     2.085248919576   110.77440593   300.77962491
 H      9   8   7     2.088507400156   111.00663871    64.41181435
 H     10   9   8     2.031086954114   108.06765181   314.51936694
 H     10   9   8     2.219442748484   100.54276888    65.87169048
 H     11  10   9     2.195732188144   104.61161240   299.57933706
 H     11  10   9     2.183575655069   109.25882673   194.73114117
 H     12  11  10     2.249297389075   107.00794344   197.68815121
 H     12  11  10     2.223414219296   106.52595135   299.48538629
 H     13  12  11     2.254278316358   107.51368073    71.98820066
 H     13  12  11     2.246597957860   104.54614953   171.37916090
 H     14  13  12     2.178645815252   105.83286121   189.84160794
 H     14  13  12     2.155902448349   112.91358716   298.26501154
 H     15  14  13     2.054322935737   117.65402036   296.56771204
 H     15  14  13     2.141269344054   106.74734358    62.08398748
 H     16  15  14     2.103620480362   109.20219854    59.78285478
 H     16  15  14     2.096351727114   107.07370695   180.97776760
 H     17  16  15     2.060404559979   116.54517871    69.01789363
 H     17  16  15     2.180604539875   106.24950088   190.55113056
 H     21  20  18     2.143423940892   110.15952615   195.23019014
 H     21  20  18     2.174323400945   109.93655525   305.41865033
 H     22  21  20     2.101664503071   109.15939385    58.10154959
 H     23  22  21     2.061303972299   112.20946872   312.94817997
 H     23  22  21     2.136519094936   107.34141291    69.64940182
 H     27  25  24     2.102674672988   107.51495278   242.88152325
 H     27  25  24     2.073352209532   109.40713486   127.01064821
 H     28  27  25     2.121174071440   107.41278036    59.02864222
 H     28  27  25     2.106202767288   108.87485826   303.11135470
 H     29  28  27     2.130041651324   106.46052395   300.37185229
 H     29  28  27     2.082660306468   109.48435160   186.21707718
 H     30  29  28     2.104064398253   110.59858131   177.87610290
 H     30  29  28     2.053871846820   110.44884451   296.30232864
 H     31  30  29     2.089126676303   112.06302189    34.93290335
 H     31  30  29     2.100759657754   108.21399709   152.92236413
 H     31  30  29     2.086183407965   111.88444719   271.91753724
 H     35  33  32     2.051611242418   104.47407096   225.63718631
 H     35  33  32     2.117435804119   107.98839733   112.33458508
 H     36  35  33     2.181916731174   105.31772967   308.92333255
 H     36  35  33     2.169985449339   106.78563948    53.81510849
 H     37  36  35     2.175590330865   106.01798715   186.54443945
 H     37  36  35     2.146119662658   111.75461271   296.66577213
 H     38  37  36     2.154166917407   108.48381953   167.69961851
 H     38  37  36     2.180299940392   107.35872904    59.42185595
 H     39  38  37     2.063900442747   113.12247074    79.21188549
 H     39  38  37     2.187688286330   104.32056693   188.75677579
 H     40  39  38     2.138860963741   106.45438105   186.35445009
 H     40  39  38     2.099358216474   113.85008438    68.61144669
 H     41  40  39     2.097817664093   111.55715031    68.78510700
 H     41  40  39     2.133986884642   106.41509533   184.38278855
 H     42  41  40     2.057358772660   111.54324269   303.64804617
 H     42  41  40     2.125898303204   114.60860284    66.19227610
 H     43  42  41     2.087715733252   105.48679199   184.66728415
 H     43  42  41     2.110511744782   105.41701305   299.64786724
 H     44  43  42     2.089411305929   113.62397625    54.39907591
 H     44  43  42     2.089075301329   111.68449194   294.88181888
 H     45  44  43     2.136560039796   106.46228033   185.94673735
 H     45  44  43     2.084936652661   105.02228288   297.58850423
 H     46  45  44     2.164176778127   106.02334749   299.44207834
 H     46  45  44     2.126165510345   112.45411353    52.25387830
 H     47  46  45     2.150879473916   109.53269530    66.75167820
 H     47  46  45     2.164970992158   110.04328758   179.67242129
 H     48  47  46     2.157100188112   106.17481727   305.43092670
 H     48  47  46     2.131301782553   110.49295020   189.63196511
 H     49  48  47     2.180172986846   107.09274882   137.54141725
 H     49  48  47     2.057866129977   116.18482645    21.70211439
 H     49  48  47     2.101883747483   114.94848003   249.23269582

---------------------
BASIS SET INFORMATION
---------------------
There are 3 groups of distinct atoms

 Group   1 Type C   : 7s4p1d contracted to 3s2p1d pattern {511/31/1}
 Group   2 Type O   : 7s4p1d contracted to 3s2p1d pattern {511/31/1}
 Group   3 Type H   : 4s1p contracted to 2s1p pattern {31/1}

Atom   0C    basis set group =>   1
Atom   1C    basis set group =>   1
Atom   2C    basis set group =>   1
Atom   3C    basis set group =>   1
Atom   4C    basis set group =>   1
Atom   5C    basis set group =>   1
Atom   6C    basis set group =>   1
Atom   7C    basis set group =>   1
Atom   8C    basis set group =>   1
Atom   9C    basis set group =>   1
Atom  10C    basis set group =>   1
Atom  11C    basis set group =>   1
Atom  12C    basis set group =>   1
Atom  13C    basis set group =>   1
Atom  14C    basis set group =>   1
Atom  15C    basis set group =>   1
Atom  16C    basis set group =>   1
Atom  17C    basis set group =>   1
Atom  18O    basis set group =>   2
Atom  19O    basis set group =>   2
Atom  20C    basis set group =>   1
Atom  21C    basis set group =>   1
Atom  22C    basis set group =>   1
Atom  23O    basis set group =>   2
Atom  24C    basis set group =>   1
Atom  25O    basis set group =>   2
Atom  26C    basis set group =>   1
Atom  27C    basis set group =>   1
Atom  28C    basis set group =>   1
Atom  29C    basis set group =>   1
Atom  30C    basis set group =>   1
Atom  31O    basis set group =>   2
Atom  32C    basis set group =>   1
Atom  33O    basis set group =>   2
Atom  34C    basis set group =>   1
Atom  35C    basis set group =>   1
Atom  36C    basis set group =>   1
Atom  37C    basis set group =>   1
Atom  38C    basis set group =>   1
Atom  39C    basis set group =>   1
Atom  40C    basis set group =>   1
Atom  41C    basis set group =>   1
Atom  42C    basis set group =>   1
Atom  43C    basis set group =>   1
Atom  44C    basis set group =>   1
Atom  45C    basis set group =>   1
Atom  46C    basis set group =>   1
Atom  47C    basis set group =>   1
Atom  48C    basis set group =>   1
Atom  49H    basis set group =>   3
Atom  50H    basis set group =>   3
Atom  51H    basis set group =>   3
Atom  52H    basis set group =>   3
Atom  53H    basis set group =>   3
Atom  54H    basis set group =>   3
Atom  55H    basis set group =>   3
Atom  56H    basis set group =>   3
Atom  57H    basis set group =>   3
Atom  58H    basis set group =>   3
Atom  59H    basis set group =>   3
Atom  60H    basis set group =>   3
Atom  61H    basis set group =>   3
Atom  62H    basis set group =>   3
Atom  63H    basis set group =>   3
Atom  64H    basis set group =>   3
Atom  65H    basis set group =>   3
Atom  66H    basis set group =>   3
Atom  67H    basis set group =>   3
Atom  68H    basis set group =>   3
Atom  69H    basis set group =>   3
Atom  70H    basis set group =>   3
Atom  71H    basis set group =>   3
Atom  72H    basis set group =>   3
Atom  73H    basis set group =>   3
Atom  74H    basis set group =>   3
Atom  75H    basis set group =>   3
Atom  76H    basis set group =>   3
Atom  77H    basis set group =>   3
Atom  78H    basis set group =>   3
Atom  79H    basis set group =>   3
Atom  80H    basis set group =>   3
Atom  81H    basis set group =>   3
Atom  82H    basis set group =>   3
Atom  83H    basis set group =>   3
Atom  84H    basis set group =>   3
Atom  85H    basis set group =>   3
Atom  86H    basis set group =>   3
Atom  87H    basis set group =>   3
Atom  88H    basis set group =>   3
Atom  89H    basis set group =>   3
Atom  90H    basis set group =>   3
Atom  91H    basis set group =>   3
Atom  92H    basis set group =>   3
Atom  93H    basis set group =>   3
Atom  94H    basis set group =>   3
Atom  95H    basis set group =>   3
Atom  96H    basis set group =>   3
Atom  97H    basis set group =>   3
Atom  98H    basis set group =>   3
Atom  99H    basis set group =>   3
Atom 100H    basis set group =>   3
Atom 101H    basis set group =>   3
Atom 102H    basis set group =>   3
Atom 103H    basis set group =>   3
Atom 104H    basis set group =>   3
Atom 105H    basis set group =>   3
Atom 106H    basis set group =>   3
Atom 107H    basis set group =>   3
Atom 108H    basis set group =>   3
Atom 109H    basis set group =>   3
Atom 110H    basis set group =>   3
Atom 111H    basis set group =>   3
Atom 112H    basis set group =>   3
Atom 113H    basis set group =>   3
Atom 114H    basis set group =>   3
Atom 115H    basis set group =>   3
Atom 116H    basis set group =>   3
Atom 117H    basis set group =>   3
Atom 118H    basis set group =>   3
Atom 119H    basis set group =>   3
Atom 120H    basis set group =>   3
Atom 121H    basis set group =>   3
Atom 122H    basis set group =>   3
Atom 123H    basis set group =>   3
Atom 124H    basis set group =>   3
Atom 125H    basis set group =>   3
Atom 126H    basis set group =>   3
Atom 127H    basis set group =>   3
Atom 128H    basis set group =>   3
Atom 129H    basis set group =>   3
Atom 130H    basis set group =>   3
---------------------------------
AUXILIARY/J BASIS SET INFORMATION
---------------------------------
There are 3 groups of distinct atoms

 Group   1 Type C   : 12s5p4d2f1g contracted to 6s4p3d1f1g pattern {711111/2111/211/2/1}
 Group   2 Type O   : 12s5p4d2f1g contracted to 6s4p3d1f1g pattern {711111/2111/211/2/1}
 Group   3 Type H   : 5s2p1d contracted to 3s1p1d pattern {311/2/1}

Atom   0C    basis set group =>   1
Atom   1C    basis set group =>   1
Atom   2C    basis set group =>   1
Atom   3C    basis set group =>   1
Atom   4C    basis set group =>   1
Atom   5C    basis set group =>   1
Atom   6C    basis set group =>   1
Atom   7C    basis set group =>   1
Atom   8C    basis set group =>   1
Atom   9C    basis set group =>   1
Atom  10C    basis set group =>   1
Atom  11C    basis set group =>   1
Atom  12C    basis set group =>   1
Atom  13C    basis set group =>   1
Atom  14C    basis set group =>   1
Atom  15C    basis set group =>   1
Atom  16C    basis set group =>   1
Atom  17C    basis set group =>   1
Atom  18O    basis set group =>   2
Atom  19O    basis set group =>   2
Atom  20C    basis set group =>   1
Atom  21C    basis set group =>   1
Atom  22C    basis set group =>   1
Atom  23O    basis set group =>   2
Atom  24C    basis set group =>   1
Atom  25O    basis set group =>   2
Atom  26C    basis set group =>   1
Atom  27C    basis set group =>   1
Atom  28C    basis set group =>   1
Atom  29C    basis set group =>   1
Atom  30C    basis set group =>   1
Atom  31O    basis set group =>   2
Atom  32C    basis set group =>   1
Atom  33O    basis set group =>   2
Atom  34C    basis set group =>   1
Atom  35C    basis set group =>   1
Atom  36C    basis set group =>   1
Atom  37C    basis set group =>   1
Atom  38C    basis set group =>   1
Atom  39C    basis set group =>   1
Atom  40C    basis set group =>   1
Atom  41C    basis set group =>   1
Atom  42C    basis set group =>   1
Atom  43C    basis set group =>   1
Atom  44C    basis set group =>   1
Atom  45C    basis set group =>   1
Atom  46C    basis set group =>   1
Atom  47C    basis set group =>   1
Atom  48C    basis set group =>   1
Atom  49H    basis set group =>   3
Atom  50H    basis set group =>   3
Atom  51H    basis set group =>   3
Atom  52H    basis set group =>   3
Atom  53H    basis set group =>   3
Atom  54H    basis set group =>   3
Atom  55H    basis set group =>   3
Atom  56H    basis set group =>   3
Atom  57H    basis set group =>   3
Atom  58H    basis set group =>   3
Atom  59H    basis set group =>   3
Atom  60H    basis set group =>   3
Atom  61H    basis set group =>   3
Atom  62H    basis set group =>   3
Atom  63H    basis set group =>   3
Atom  64H    basis set group =>   3
Atom  65H    basis set group =>   3
Atom  66H    basis set group =>   3
Atom  67H    basis set group =>   3
Atom  68H    basis set group =>   3
Atom  69H    basis set group =>   3
Atom  70H    basis set group =>   3
Atom  71H    basis set group =>   3
Atom  72H    basis set group =>   3
Atom  73H    basis set group =>   3
Atom  74H    basis set group =>   3
Atom  75H    basis set group =>   3
Atom  76H    basis set group =>   3
Atom  77H    basis set group =>   3
Atom  78H    basis set group =>   3
Atom  79H    basis set group =>   3
Atom  80H    basis set group =>   3
Atom  81H    basis set group =>   3
Atom  82H    basis set group =>   3
Atom  83H    basis set group =>   3
Atom  84H    basis set group =>   3
Atom  85H    basis set group =>   3
Atom  86H    basis set group =>   3
Atom  87H    basis set group =>   3
Atom  88H    basis set group =>   3
Atom  89H    basis set group =>   3
Atom  90H    basis set group =>   3
Atom  91H    basis set group =>   3
Atom  92H    basis set group =>   3
Atom  93H    basis set group =>   3
Atom  94H    basis set group =>   3
Atom  95H    basis set group =>   3
Atom  96H    basis set group =>   3
Atom  97H    basis set group =>   3
Atom  98H    basis set group =>   3
Atom  99H    basis set group =>   3
Atom 100H    basis set group =>   3
Atom 101H    basis set group =>   3
Atom 102H    basis set group =>   3
Atom 103H    basis set group =>   3
Atom 104H    basis set group =>   3
Atom 105H    basis set group =>   3
Atom 106H    basis set group =>   3
Atom 107H    basis set group =>   3
Atom 108H    basis set group =>   3
Atom 109H    basis set group =>   3
Atom 110H    basis set group =>   3
Atom 111H    basis set group =>   3
Atom 112H    basis set group =>   3
Atom 113H    basis set group =>   3
Atom 114H    basis set group =>   3
Atom 115H    basis set group =>   3
Atom 116H    basis set group =>   3
Atom 117H    basis set group =>   3
Atom 118H    basis set group =>   3
Atom 119H    basis set group =>   3
Atom 120H    basis set group =>   3
Atom 121H    basis set group =>   3
Atom 122H    basis set group =>   3
Atom 123H    basis set group =>   3
Atom 124H    basis set group =>   3
Atom 125H    basis set group =>   3
Atom 126H    basis set group =>   3
Atom 127H    basis set group =>   3
Atom 128H    basis set group =>   3
Atom 129H    basis set group =>   3
Atom 130H    basis set group =>   3

Checking for AutoStart:
The File: 8.gbw exists
Trying to determine its content:
     ... Fine, the file contains calculation information
     ... Fine, the calculation information was read
     ... Fine, the file contains a basis set
     ... Fine, the basis set was read
     ... Fine, the file contains a geometry
     ... Fine, the geometry was read
     ... Fine, the file contains a set of orbitals
     ... Fine, the orbitals can be read
     => possible old guess file was deleted
     => GBW file was renamed to GES file
     => GES file is set as startup file
     => Guess is set to MORead
     ... now leaving AutoStart

------------------------------------------------------------------------------
                           ORCA GTO INTEGRAL CALCULATION
                           -- RI-GTO INTEGRALS CHOSEN --
------------------------------------------------------------------------------
------------------------------------------------------------------------------
                   ___                                                        
                  /   \      - P O W E R E D   B Y -                         
                 /     \                                                     
                 |  |  |   _    _      __       _____    __    __             
                 |  |  |  | |  | |    /  \     |  _  \  |  |  /  |          
                  \  \/   | |  | |   /    \    | | | |  |  | /  /          
                 / \  \   | |__| |  /  /\  \   | |_| |  |  |/  /          
                |  |  |   |  __  | /  /__\  \  |    /   |      \           
                |  |  |   | |  | | |   __   |  |    \   |  |\   \          
                \     /   | |  | | |  |  |  |  | |\  \  |  | \   \       
                 \___/    |_|  |_| |__|  |__|  |_| \__\ |__|  \__/        
                                                                              
                      - O R C A' S   B I G   F R I E N D -                    
                                      &                                       
                       - I N T E G R A L  F E E D E R -                       
                                                                              
 v1 FN, 2020, v2 2021                                                         
------------------------------------------------------------------------------


Reading SHARK input file 8.SHARKINP.tmp ... ok
----------------------
SHARK INTEGRAL PACKAGE
----------------------

Number of atoms                             ...    131
Number of basis functions                   ...   1096
Number of shells                            ...    540
Maximum angular momentum                    ...      2
Integral batch strategy                     ... SHARK/LIBINT Hybrid
RI-J (if used) integral strategy            ... SPLIT-RIJ (Revised 2003 algorithm where possible)
Printlevel                                  ...      1
Contraction scheme used                     ... SEGMENTED contraction
Coulomb Range Separation                    ... NOT USED
Exchange Range Separation                   ... NOT USED
Finite Nucleus Model                        ... NOT USED
Auxiliary Coulomb fitting basis             ... AVAILABLE
   # of basis functions in Aux-J            ...   3303
   # of shells in Aux-J                     ...   1145
   Maximum angular momentum in Aux-J        ...      4
Auxiliary J/K fitting basis                 ... NOT available
Auxiliary Correlation fitting basis         ... NOT available
Auxiliary 'external' fitting basis          ... NOT available
Integral threshold                          ...     2.500000e-11
Primitive cut-off                           ...     2.500000e-12
Primitive pair pre-selection threshold      ...     2.500000e-12

Calculating pre-screening integrals         ... done (  0.4 sec) Dimension = 540
Organizing shell pair data                  ... done (  0.5 sec)
Shell pair information
Total number of shell pairs                 ...    146070
Shell pairs after pre-screening             ...     48324
Total number of primitive shell pairs       ...    499384
Primitive shell pairs kept                  ...    102793
          la=0 lb=0:  17540 shell pairs
          la=1 lb=0:  18623 shell pairs
          la=1 lb=1:   4955 shell pairs
          la=2 lb=0:   4585 shell pairs
          la=2 lb=1:   2332 shell pairs
          la=2 lb=2:    289 shell pairs

Calculating one electron integrals          ... done (  0.8 sec)
Calculating RI/J V-Matrix + Cholesky decomp.... done (  0.9 sec)
Calculating Nuclear repulsion               ... done (  0.0 sec) ENN=   6174.110335428107 Eh

SHARK setup successfully completed in   2.9 seconds

Maximum memory used throughout the entire GTOINT-calculation: 232.1 MB
-------------------------------------------------------------------------------
                                 ORCA SCF
-------------------------------------------------------------------------------

------------
SCF SETTINGS
------------
Hamiltonian:
 Density Functional     Method          .... DFT(GTOs)
 Exchange Functional    Exchange        .... B88
   X-Alpha parameter    XAlpha          ....  0.666667
   Becke's b parameter  XBeta           ....  0.004200
 Correlation Functional Correlation     .... LYP
 LDA part of GGA corr.  LDAOpt          .... VWN-5
 Gradients option       PostSCFGGA      .... off
 Hybrid DFT is turned on
   Fraction HF Exchange ScalHFX         ....  0.200000
   Scaling of DF-GGA-X  ScalDFX         ....  0.720000
   Scaling of DF-GGA-C  ScalDFC         ....  0.810000
   Scaling of DF-LDA-C  ScalLDAC        ....  1.000000
   Perturbative correction              ....  0.000000
   Density functional embedding theory  .... OFF
   NL short-range parameter             ....  4.800000
 RI-approximation to the Coulomb term is turned on
   Number of AuxJ basis functions       .... 3303
   RIJ-COSX (HFX calculated with COS-X)).... on


General Settings:
 Integral files         IntName         .... 8
 Hartree-Fock type      HFTyp           .... RHF
 Total Charge           Charge          ....    0
 Multiplicity           Mult            ....    1
 Number of Electrons    NEL             ....  388
 Basis Dimension        Dim             .... 1096
 Nuclear Repulsion      ENuc            ....   6174.1103354281 Eh

Convergence Acceleration:
 DIIS                   CNVDIIS         .... on
   Start iteration      DIISMaxIt       ....    12
   Startup error        DIISStart       ....  0.200000
   # of expansion vecs  DIISMaxEq       ....     5
   Bias factor          DIISBfac        ....   1.050
   Max. coefficient     DIISMaxC        ....  10.000
 Trust-Rad. Augm. Hess. CNVTRAH         .... auto
   Auto Start mean grad. ratio tolernc. ....  1.125000
   Auto Start start iteration           ....     1
   Auto Start num. interpolation iter.  ....    10
   Max. Number of Micro iterations      ....    16
   Max. Number of Macro iterations      .... Maxiter - #DIIS iter
   Number of Davidson start vectors     ....     2
   Converg. threshold I  (grad. norm)   ....   1.000e-05
   Converg. threshold II (energy diff.) ....   1.000e-08
   Grad. Scal. Fac. for Micro threshold ....   0.100
   Minimum threshold for Micro iter.    ....   0.010
   NR start threshold (gradient norm)   ....   0.001
   Initial trust radius                 ....   0.400
   Minimum AH scaling param. (alpha)    ....   1.000
   Maximum AH scaling param. (alpha)    .... 1000.000
   Orbital update algorithm             .... Taylor
   White noise on init. David. guess    .... on
   Maximum white noise                  ....   0.010
   Quad. conv. algorithm                .... NR
 SOSCF                  CNVSOSCF        .... on
   Start iteration      SOSCFMaxIt      ....   150
   Startup grad/error   SOSCFStart      ....  0.003300
 Level Shifting         CNVShift        .... on
   Level shift para.    LevelShift      ....    0.2500
   Turn off err/grad.   ShiftErr        ....    0.0010
 Zerner damping         CNVZerner       .... off
 Static damping         CNVDamp         .... on
   Fraction old density DampFac         ....    0.7000
   Max. Damping (<1)    DampMax         ....    0.9800
   Min. Damping (>=0)   DampMin         ....    0.0000
   Turn off err/grad.   DampErr         ....    0.1000
 Fernandez-Rico         CNVRico         .... off

SCF Procedure:
 Maximum # iterations   MaxIter         ....   125
 SCF integral mode      SCFMode         .... Direct
   Integral package                     .... SHARK and LIBINT hybrid scheme
 Reset frequency        DirectResetFreq ....    20
 Integral Threshold     Thresh          ....  2.500e-11 Eh
 Primitive CutOff       TCut            ....  2.500e-12 Eh

Convergence Tolerance:
 Convergence Check Mode ConvCheckMode   .... Total+1el-Energy
 Convergence forced     ConvForced      .... 0
 Energy Change          TolE            ....  1.000e-08 Eh
 1-El. energy change                    ....  1.000e-05 Eh
 Orbital Gradient       TolG            ....  1.000e-05
 Orbital Rotation angle TolX            ....  1.000e-05
 DIIS Error             TolErr          ....  5.000e-07


Diagonalization of the overlap matrix:
Smallest eigenvalue                        ... 7.160e-04
Time for diagonalization                   ...    0.626 sec
Threshold for overlap eigenvalues          ... 1.000e-08
Number of eigenvalues below threshold      ... 0
Time for construction of square roots      ...    0.198 sec
Total time needed                          ...    0.829 sec

---------------------
INITIAL GUESS: MOREAD
---------------------
Guess MOs are being read from file: 8.ges
Input Geometry matches current geometry (good)
Input basis set matches current basis set (good)
MOs were renormalized
MOs were reorthogonalized (Cholesky)
                      ------------------
                      INITIAL GUESS DONE (   0.9 sec)
                      ------------------
-------------------
DFT GRID GENERATION
-------------------

General Integration Accuracy     IntAcc      ... 4.388
Radial Grid Type                 RadialGrid  ... OptM3 with GC (2021)
Angular Grid (max. ang.)         AngularGrid ... 4 (Lebedev-302)
Angular grid pruning method      GridPruning ... 4 (adaptive)
Weight generation scheme         WeightScheme... Becke
Basis function cutoff            BFCut       ... 1.0000e-11
Integration weight cutoff        WCut        ... 1.0000e-14
Angular grids for H and He will be reduced by one unit
Partially contracted basis set               ... off
Rotationally invariant grid construction     ... off

Total number of grid points                  ...   549591
Total number of batches                      ...     8660
Average number of points per batch           ...       63
Average number of grid points per atom       ...     4195
Time for grid setup =   55.664 sec

--------------------
COSX GRID GENERATION
--------------------

GRIDX 1
-------
General Integration Accuracy     IntAcc      ... 3.816
Radial Grid Type                 RadialGrid  ... OptM3 with GC (2021)
Angular Grid (max. ang.)         AngularGrid ... 1 (Lebedev-50)
Angular grid pruning method      GridPruning ... 4 (adaptive)
Weight generation scheme         WeightScheme... Becke
Basis function cutoff            BFCut       ... 1.0000e-11
Integration weight cutoff        WCut        ... 1.0000e-14
Angular grids for H and He will be reduced by one unit
Partially contracted basis set               ... on
Rotationally invariant grid construction     ... off

Total number of grid points                  ...    69860
Total number of batches                      ...     1173
Average number of points per batch           ...       59
Average number of grid points per atom       ...      533
UseSFitting                                  ... on

GRIDX 2
-------
General Integration Accuracy     IntAcc      ... 4.020
Radial Grid Type                 RadialGrid  ... OptM3 with GC (2021)
Angular Grid (max. ang.)         AngularGrid ... 2 (Lebedev-110)
Angular grid pruning method      GridPruning ... 4 (adaptive)
Weight generation scheme         WeightScheme... Becke
Basis function cutoff            BFCut       ... 1.0000e-11
Integration weight cutoff        WCut        ... 1.0000e-14
Angular grids for H and He will be reduced by one unit
Partially contracted basis set               ... on
Rotationally invariant grid construction     ... off

Total number of grid points                  ...   143626
Total number of batches                      ...     2313
Average number of points per batch           ...       62
Average number of grid points per atom       ...     1096
UseSFitting                                  ... on

GRIDX 3
-------
General Integration Accuracy     IntAcc      ... 4.338
Radial Grid Type                 RadialGrid  ... OptM3 with GC (2021)
Angular Grid (max. ang.)         AngularGrid ... 3 (Lebedev-194)
Angular grid pruning method      GridPruning ... 4 (adaptive)
Weight generation scheme         WeightScheme... Becke
Basis function cutoff            BFCut       ... 1.0000e-11
Integration weight cutoff        WCut        ... 1.0000e-14
Angular grids for H and He will be reduced by one unit
Partially contracted basis set               ... on
Rotationally invariant grid construction     ... off

Total number of grid points                  ...   310344
Total number of batches                      ...     4905
Average number of points per batch           ...       63
Average number of grid points per atom       ...     2369
UseSFitting                                  ... on

Time for X-Grid setup             =   77.868 sec

--------------
SCF ITERATIONS
--------------
ITER       Energy         Delta-E        Max-DP      RMS-DP      [F,P]     Damp
               ***  Starting incremental Fock matrix formation  ***
                      *** Initiating the SOSCF procedure ***
                      *** Re-Reading the Fockian *** 
                      *** Removing any level shift *** 
ITER      Energy       Delta-E        Grad      Rot      Max-DP    RMS-DP
  0  -2136.18227623 -2136.1822762287  0.000001  0.000001  0.000005  0.000000
               *** Restarting incremental Fock matrix formation ***
                  ***Gradient check signals convergence***
              ***Rediagonalizing the Fockian in SOSCF/NRSCF***

               *****************************************************
               *                     SUCCESS                       *
               *           SCF CONVERGED AFTER   1 CYCLES          *
               *****************************************************


ORCA finished by error termination in SCF
Calling Command: orca_scf 8.gbw b 
[file orca_tools/qcmsg.cpp, line 465]: 
  .... aborting the run

