
                                 *****************
                                 * O   R   C   A *
                                 *****************

                                            #,                                       
                                            ###                                      
                                            ####                                     
                                            #####                                    
                                            ######                                   
                                           ########,                                 
                                     ,,################,,,,,                         
                               ,,#################################,,                 
                          ,,##########################################,,             
                       ,#########################################, ''#####,          
                    ,#############################################,,   '####,        
                  ,##################################################,,,,####,       
                ,###########''''           ''''###############################       
              ,#####''   ,,,,##########,,,,          '''####'''          '####       
            ,##' ,,,,###########################,,,                        '##       
           ' ,,###''''                  '''############,,,                           
         ,,##''                                '''############,,,,        ,,,,,,###''
      ,#''                                            '''#######################'''  
     '                                                          ''''####''''         
             ,#######,   #######,   ,#######,      ##                                
            ,#'     '#,  ##    ##  ,#'     '#,    #''#        ######   ,####,        
            ##       ##  ##   ,#'  ##            #'  '#       #        #'  '#        
            ##       ##  #######   ##           ,######,      #####,   #    #        
            '#,     ,#'  ##    ##  '#,     ,#' ,#      #,         ##   #,  ,#        
             '#######'   ##     ##  '#######'  #'      '#     #####' # '####'        



                  #######################################################
                  #                        -***-                        #
                  #          Department of theory and spectroscopy      #
                  #    Directorship and core code : Frank Neese         #
                  #        Max Planck Institute fuer Kohlenforschung    #
                  #                Kaiser Wilhelm Platz 1               #
                  #                 D-45470 Muelheim/Ruhr               #
                  #                      Germany                        #
                  #                                                     #
                  #                  All rights reserved                #
                  #                        -***-                        #
                  #######################################################


                         Program Version 5.0.3 -  RELEASE  -


 With contributions from (in alphabetic order):
   Daniel Aravena         : Magnetic Suceptibility
   Michael Atanasov       : Ab Initio Ligand Field Theory (pilot matlab implementation)
   Alexander A. Auer      : GIAO ZORA, VPT2 properties, NMR spectrum
   Ute Becker             : Parallelization
   Giovanni Bistoni       : ED, misc. LED, open-shell LED, HFLD
   Martin Brehm           : Molecular dynamics
   Dmytro Bykov           : SCF Hessian
   Vijay G. Chilkuri      : MRCI spin determinant printing, contributions to CSF-ICE
   Dipayan Datta          : RHF DLPNO-CCSD density
   Achintya Kumar Dutta   : EOM-CC, STEOM-CC
   Dmitry Ganyushin       : Spin-Orbit,Spin-Spin,Magnetic field MRCI
   Miquel Garcia          : C-PCM and meta-GGA Hessian, CC/C-PCM, Gaussian charge scheme
   Yang Guo               : DLPNO-NEVPT2, F12-NEVPT2, CIM, IAO-localization
   Andreas Hansen         : Spin unrestricted coupled pair/coupled cluster methods
   Benjamin Helmich-Paris : MC-RPA, TRAH-SCF, COSX integrals
   Lee Huntington         : MR-EOM, pCC
   Robert Izsak           : Overlap fitted RIJCOSX, COSX-SCS-MP3, EOM
   Marcus Kettner         : VPT2
   Christian Kollmar      : KDIIS, OOCD, Brueckner-CCSD(T), CCSD density, CASPT2, CASPT2-K
   Simone Kossmann        : Meta GGA functionals, TD-DFT gradient, OOMP2, MP2 Hessian
   Martin Krupicka        : Initial AUTO-CI
   Lucas Lang             : DCDCAS
   Marvin Lechner         : AUTO-CI (C++ implementation), FIC-MRCC
   Dagmar Lenk            : GEPOL surface, SMD
   Dimitrios Liakos       : Extrapolation schemes; Compound Job, initial MDCI parallelization
   Dimitrios Manganas     : Further ROCIS development; embedding schemes
   Dimitrios Pantazis     : SARC Basis sets
   Anastasios Papadopoulos: AUTO-CI, single reference methods and gradients
   Taras Petrenko         : DFT Hessian,TD-DFT gradient, ASA, ECA, R-Raman, ABS, FL, XAS/XES, NRVS
   Peter Pinski           : DLPNO-MP2, DLPNO-MP2 Gradient
   Christoph Reimann      : Effective Core Potentials
   Marius Retegan         : Local ZFS, SOC
   Christoph Riplinger    : Optimizer, TS searches, QM/MM, DLPNO-CCSD(T), (RO)-DLPNO pert. Triples
   Tobias Risthaus        : Range-separated hybrids, TD-DFT gradient, RPA, STAB
   Michael Roemelt        : Original ROCIS implementation
   Masaaki Saitow         : Open-shell DLPNO-CCSD energy and density
   Barbara Sandhoefer     : DKH picture change effects
   Avijit Sen             : IP-ROCIS
   Kantharuban Sivalingam : CASSCF convergence, NEVPT2, FIC-MRCI
   Bernardo de Souza      : ESD, SOC TD-DFT
   Georgi Stoychev        : AutoAux, RI-MP2 NMR, DLPNO-MP2 response
   Willem Van den Heuvel  : Paramagnetic NMR
   Boris Wezisla          : Elementary symmetry handling
   Frank Wennmohs         : Technical directorship


 We gratefully acknowledge several colleagues who have allowed us to
 interface, adapt or use parts of their codes:
   Stefan Grimme, W. Hujo, H. Kruse, P. Pracht,  : VdW corrections, initial TS optimization,
                  C. Bannwarth, S. Ehlert          DFT functionals, gCP, sTDA/sTD-DF
   Ed Valeev, F. Pavosevic, A. Kumar             : LibInt (2-el integral package), F12 methods
   Garnet Chan, S. Sharma, J. Yang, R. Olivares  : DMRG
   Ulf Ekstrom                                   : XCFun DFT Library
   Mihaly Kallay                                 : mrcc  (arbitrary order and MRCC methods)
   Jiri Pittner, Ondrej Demel                    : Mk-CCSD
   Frank Weinhold                                : gennbo (NPA and NBO analysis)
   Christopher J. Cramer and Donald G. Truhlar   : smd solvation model
   Lars Goerigk                                  : TD-DFT with DH, B97 family of functionals
   V. Asgeirsson, H. Jonsson                     : NEB implementation
   FAccTs GmbH                                   : IRC, NEB, NEB-TS, DLPNO-Multilevel, CI-OPT
                                                   MM, QMMM, 2- and 3-layer-ONIOM, Crystal-QMMM,
                                                   LR-CPCM, SF, NACMEs, symmetry and pop. for TD-DFT,
                                                   nearIR, NL-DFT gradient (VV10), updates on ESD,
                                                   ML-optimized integration grids
   S Lehtola, MJT Oliveira, MAL Marques          : LibXC Library
   Liviu Ungur et al                             : ANISO software


 Your calculation uses the libint2 library for the computation of 2-el integrals
 For citations please refer to: http://libint.valeyev.net

 Your ORCA version has been built with support for libXC version: 5.1.0
 For citations please refer to: https://tddft.org/programs/libxc/

 This ORCA versions uses:
   CBLAS   interface :  Fast vector & matrix operations
   LAPACKE interface :  Fast linear algebra routines
   SCALAPACK package :  Parallel linear algebra routines
   Shared memory     :  Shared parallel matrices
   BLAS/LAPACK       :  OpenBLAS 0.3.15  USE64BITINT DYNAMIC_ARCH NO_AFFINITY Zen SINGLE_THREADED
        Core in use  :  Zen
   Copyright (c) 2011-2014, The OpenBLAS Project




***************************************
The coordinates will be read from file: _29.xyz
***************************************


================================================================================

----- Orbital basis set information -----
Your calculation utilizes the basis: def2-SVP
   F. Weigend and R. Ahlrichs, Phys. Chem. Chem. Phys. 7, 3297 (2005).

----- AuxJ basis set information -----
Your calculation utilizes the auxiliary basis: def2/J
   F. Weigend, Phys. Chem. Chem. Phys. 8, 1057 (2006).

================================================================================
                                        WARNINGS
                       Please study these warnings very carefully!
================================================================================


INFO   : the flag for use of the SHARK integral package has been found!

================================================================================
                                       INPUT FILE
================================================================================
NAME = 29.inp
|  1> ! B3LYP DEF2-SVP TightSCF
|  2> %elprop
|  3> Polar 1
|  4> end
|  5> * xyzfile 0 1 _29.xyz
|  6> 
|  7>                          ****END OF INPUT****
================================================================================

                       ****************************
                       * Single Point Calculation *
                       ****************************

---------------------------------
CARTESIAN COORDINATES (ANGSTROEM)
---------------------------------
  C     -4.471461   -1.278556    0.625599
  C     -3.142050   -1.050907   -0.103164
  C     -3.452019   -1.153073   -1.579988
  C     -2.222224   -2.121604    0.341018
  C     -2.585296   -3.377901    0.168654
  C     -2.647777    0.291949    0.297928
  C     -1.434303    0.889343   -0.067584
  C     -1.341729    2.144036    0.510407
  C     -0.415362    3.183742    0.507675
  C     -0.605709    4.362431    1.188362
  C     -1.770390    4.514451    1.904763
  C     -2.706188    3.484887    1.916771
  C     -2.512116    2.299838    1.230464
  N     -3.258673    1.189408    1.083171
  C     -0.487105    0.277181   -0.956208
  C      0.779121    0.036051   -0.702630
  C      1.675467   -0.587410   -1.675796
  O      1.206324   -0.863172   -2.811483
  N      3.026068   -0.885258   -1.388440
  C      4.015917   -1.785524   -1.932451
  C      5.308156   -1.410524   -1.252024
  C      4.846737   -0.916008    0.101567
  C      3.610978   -0.123902   -0.277176
  C      2.666507    0.036228    0.829191
  O      3.051296   -0.100390    2.009212
  N      1.310658    0.346255    0.578851
  O      4.007979    1.127128   -0.749988
  O      4.497931   -2.050842    0.845487
  H     -4.315453   -1.295053    1.724460
  H     -4.926388   -2.217207    0.249586
  H     -5.170593   -0.444123    0.419022
  H     -3.726343   -0.151734   -1.971795
  H     -2.613527   -1.623949   -2.135501
  H     -4.370118   -1.788808   -1.738949
  H     -1.273713   -1.901584    0.796074
  H     -3.526254   -3.667683   -0.283304
  H     -1.949625   -4.221358    0.474803
  H      0.481703    3.030673   -0.060974
  H      0.106251    5.172704    1.192778
  H     -1.954495    5.442298    2.459728
  H     -3.625947    3.589409    2.473555
  H     -4.208432    1.036572    1.526850
  H     -0.836417   -0.023073   -1.943567
  H      3.766494   -2.821543   -1.566234
  H      4.102168   -1.742011   -3.029691
  H      5.967463   -2.308547   -1.092813
  H      5.882654   -0.645949   -1.811640
  H      5.592649   -0.295186    0.613375
  H      0.681761    0.772136    1.291680
  H      4.008734    1.723392    0.064532
  H      4.956691   -2.097234    1.705838

----------------------------
CARTESIAN COORDINATES (A.U.)
----------------------------
  NO LB      ZA    FRAG     MASS         X           Y           Z
   0 C     6.0000    0    12.011   -8.449837   -2.416121    1.182211
   1 C     6.0000    0    12.011   -5.937614   -1.985926   -0.194952
   2 C     6.0000    0    12.011   -6.523371   -2.178992   -2.985745
   3 C     6.0000    0    12.011   -4.199395   -4.009251    0.644431
   4 C     6.0000    0    12.011   -4.885501   -6.383308    0.318710
   5 C     6.0000    0    12.011   -5.003573    0.551704    0.563002
   6 C     6.0000    0    12.011   -2.710440    1.680615   -0.127715
   7 C     6.0000    0    12.011   -2.535500    4.051641    0.964529
   8 C     6.0000    0    12.011   -0.784920    6.016400    0.959367
   9 C     6.0000    0    12.011   -1.144624    8.243800    2.245679
  10 C     6.0000    0    12.011   -3.345552    8.531076    3.599480
  11 C     6.0000    0    12.011   -5.113954    6.585482    3.622172
  12 C     6.0000    0    12.011   -4.747211    4.346064    2.325240
  13 N     7.0000    0    14.007   -6.158000    2.247655    2.046897
  14 C     6.0000    0    12.011   -0.920495    0.523796   -1.806971
  15 C     6.0000    0    12.011    1.472325    0.068127   -1.327778
  16 C     6.0000    0    12.011    3.166174   -1.110044   -3.166795
  17 O     8.0000    0    15.999    2.279622   -1.631159   -5.312933
  18 N     7.0000    0    14.007    5.718440   -1.672895   -2.623771
  19 C     6.0000    0    12.011    7.588983   -3.374151   -3.651803
  20 C     6.0000    0    12.011   10.030961   -2.665504   -2.365982
  21 C     6.0000    0    12.011    9.159006   -1.731004    0.191934
  22 C     6.0000    0    12.011    6.823759   -0.234141   -0.523787
  23 C     6.0000    0    12.011    5.038968    0.068461    1.566944
  24 O     8.0000    0    15.999    5.766114   -0.189710    3.796860
  25 N     7.0000    0    14.007    2.476785    0.654327    1.093870
  26 O     8.0000    0    15.999    7.573983    2.129963   -1.417272
  27 O     8.0000    0    15.999    8.499858   -3.875530    1.597739
  28 H     1.0000    0     1.008   -8.155024   -2.447295    3.258757
  29 H     1.0000    0     1.008   -9.309524   -4.189914    0.471649
  30 H     1.0000    0     1.008   -9.771005   -0.839271    0.791837
  31 H     1.0000    0     1.008   -7.041768   -0.286736   -3.726153
  32 H     1.0000    0     1.008   -4.938850   -3.068819   -4.035512
  33 H     1.0000    0     1.008   -8.258326   -3.380357   -3.286137
  34 H     1.0000    0     1.008   -2.406969   -3.593473    1.504362
  35 H     1.0000    0     1.008   -6.663654   -6.930916   -0.535367
  36 H     1.0000    0     1.008   -3.684257   -7.977211    0.897248
  37 H     1.0000    0     1.008    0.910287    5.727142   -0.115224
  38 H     1.0000    0     1.008    0.200785    9.774994    2.254024
  39 H     1.0000    0     1.008   -3.693460   10.284453    4.648212
  40 H     1.0000    0     1.008   -6.852047    6.783000    4.674342
  41 H     1.0000    0     1.008   -7.952784    1.958837    2.885328
  42 H     1.0000    0     1.008   -1.580599   -0.043602   -3.672809
  43 H     1.0000    0     1.008    7.117642   -5.331944   -2.959753
  44 H     1.0000    0     1.008    7.751974   -3.291924   -5.725286
  45 H     1.0000    0     1.008   11.276871   -4.362522   -2.065117
  46 H     1.0000    0     1.008   11.116605   -1.220667   -3.423503
  47 H     1.0000    0     1.008   10.568575   -0.557821    1.159111
  48 H     1.0000    0     1.008    1.288342    1.459126    2.440921
  49 H     1.0000    0     1.008    7.575409    3.256739    0.121948
  50 H     1.0000    0     1.008    9.366789   -3.963198    3.223567

--------------------------------
INTERNAL COORDINATES (ANGSTROEM)
--------------------------------
 C      0   0   0     0.000000000000     0.00000000     0.00000000
 C      1   0   0     1.533053549062     0.00000000     0.00000000
 C      2   1   0     1.512457536426   106.04643419     0.00000000
 C      2   1   3     1.479787006704   106.79168621   240.61400268
 C      4   2   1     1.319019627560   118.60822528    57.11560154
 C      2   1   3     1.486083048732   107.11565411   121.07596359
 C      6   2   1     1.401070220245   127.08117178   176.39041378
 C      7   6   2     1.384520879512   109.59708195   180.03828322
 C      8   7   6     1.392534325950   136.07741314   180.76971806
 C      9   8   7     1.374363318449   123.17661797   179.22554120
 C     10   9   8     1.375798787964   118.02826880     0.00000000
 C     11  10   9     1.391353340803   119.47889507   359.96019430
 C      8   7   6     1.382954112117   105.24036313     0.02532304
 N      6   2   1     1.339863108137   127.71901335   356.47307623
 C      7   6   2     1.435819967414   123.43778631     2.45432212
 C     15   7   6     1.313687086813   126.48776997   235.65392273
 C     16  15   7     1.462597632226   122.71853098   180.36859055
 O     17  16  15     1.259335061476   117.71516424     2.04632672
 N     17  16  15     1.412589807071   122.71626608   182.05843429
 C     19  17  16     1.444378025891   135.23834256   158.84447825
 C     20  19  17     1.507808852425   105.20965955   171.77231043
 C     21  20  19     1.513162966471   102.92166965    30.75486065
 C     19  17  16     1.468567446368   115.17765734   338.88978418
 C     23  19  17     1.463459950060   111.82329690    39.90448591
 O     24  23  19     1.248669937528   120.23736588   137.77420555
 N     24  23  19     1.413192615014   120.61488273   317.78918423
 O     23  19  17     1.395075998734   108.77116939   278.24221901
 O     22  21  20     1.401046323143   106.62969748    75.15957865
 H      1   2   3     1.110002767742   110.54387239   175.74402040
 H      1   2   3     1.108787649327   108.68063232    51.96541553
 H      1   2   3     1.108033411880   110.28559716   293.28357748
 H      3   2   1     1.109705445218   109.53997047    89.68455405
 H      3   2   1     1.110579909151   111.24293484   215.48392954
 H      3   2   1     1.127977554540   110.02850791   334.83005603
 H      4   2   1     1.074782713230   121.83906549   237.07933112
 H      5   4   2     1.083347404599   123.25488484     0.00000000
 H      5   4   2     1.099647462276   122.34740965   179.94453746
 H      9   8   7     1.073087796122   116.78568209   359.19755544
 H     10   9   8     1.078632874144   123.70122616   179.94644884
 H     11  10   9     1.096713662566   119.93967175   179.98809994
 H     12  11  10     1.080226776756   120.36576257   180.06752795
 H     14   6   2     1.059363986559   123.88885559   359.91468338
 H     15   7   6     1.089517844159   117.83042588    55.68493336
 H     20  19  17     1.126792834721   107.39565333   284.12145220
 H     20  19  17     1.101484559025   113.84284551    48.93183866
 H     21  20  19     1.125379567657   111.56006624   146.59173649
 H     21  20  19     1.108058188944   112.83306547   269.12049347
 H     22  21  20     1.097156368205   113.25986861   199.21107275
 H     26  24  23     1.041638731044   123.21123427   200.86946910
 H     27  23  19     1.009442498670   104.85883116   155.77941171
 H     28  22  21     0.976123352074   112.92263726   125.95260472

---------------------------
INTERNAL COORDINATES (A.U.)
---------------------------
 C      0   0   0     0.000000000000     0.00000000     0.00000000
 C      1   0   0     2.897051356363     0.00000000     0.00000000
 C      2   1   0     2.858130533031   106.04643419     0.00000000
 C      2   1   3     2.796392179205   106.79168621   240.61400268
 C      4   2   1     2.492585861356   118.60822528    57.11560154
 C      2   1   3     2.808289974366   107.11565411   121.07596359
 C      6   2   1     2.647639010655   127.08117178   176.39041378
 C      7   6   2     2.616365288974   109.59708195   180.03828322
 C      8   7   6     2.631508508130   136.07741314   180.76971806
 C      9   8   7     2.597170280376   123.17661797   179.22554120
 C     10   9   8     2.599882924632   118.02826880     0.00000000
 C     11  10   9     2.629276769634   119.47889507   359.96019430
 C      8   7   6     2.613404527682   105.24036313     0.02532304
 N      6   2   1     2.531974331323   127.71901335   356.47307623
 C      7   6   2     2.713306516028   123.43778631     2.45432212
 C     15   7   6     2.482508819746   126.48776997   235.65392273
 C     16  15   7     2.763908969029   122.71853098   180.36859055
 O     17  16  15     2.379798377034   117.71516424     2.04632672
 N     17  16  15     2.669407874933   122.71626608   182.05843429
 C     19  17  16     2.729478902789   135.23834256   158.84447825
 C     20  19  17     2.849345793385   105.20965955   171.77231043
 C     21  20  19     2.859463602621   102.92166965    30.75486065
 C     19  17  16     2.775190282828   115.17765734   338.88978418
 C     23  19  17     2.765538513576   111.82329690    39.90448591
 O     24  23  19     2.359644213588   120.23736588   137.77420555
 N     24  23  19     2.670547016856   120.61488273   317.78918423
 O     23  19  17     2.636311573615   108.77116939   278.24221901
 O     22  21  20     2.647593851677   106.62969748    75.15957865
 H      1   2   3     2.097601238926   110.54387239   175.74402040
 H      1   2   3     2.095304997901   108.68063232    51.96541553
 H      1   2   3     2.093879695687   110.28559716   293.28357748
 H      3   2   1     2.097039380783   109.53997047    89.68455405
 H      3   2   1     2.098691878130   111.24293484   215.48392954
 H      3   2   1     2.131568663292   110.02850791   334.83005603
 H      4   2   1     2.031044981477   121.83906549   237.07933112
 H      5   4   2     2.047229902587   123.25488484     0.00000000
 H      5   4   2     2.078032547564   122.34740965   179.94453746
 H      9   8   7     2.027842052325   116.78568209   359.19755544
 H     10   9   8     2.038320731177   123.70122616   179.94644884
 H     11  10   9     2.072488469580   119.93967175   179.98809994
 H     12  11  10     2.041332770598   120.36576257   180.06752795
 H     14   6   2     2.001907810735   123.88885559   359.91468338
 H     15   7   6     2.058890343481   117.83042588    55.68493336
 H     20  19  17     2.129329867288   107.39565333   284.12145220
 H     20  19  17     2.081504157300   113.84284551    48.93183866
 H     21  20  19     2.126659179582   111.56006624   146.59173649
 H     21  20  19     2.093926517552   112.83306547   269.12049347
 H     22  21  20     2.073325061994   113.25986861   199.21107275
 H     26  24  23     1.968411932158   123.21123427   200.86946910
 H     27  23  19     1.907569870427   104.85883116   155.77941171
 H     28  22  21     1.844605808346   112.92263726   125.95260472

---------------------
BASIS SET INFORMATION
---------------------
There are 4 groups of distinct atoms

 Group   1 Type C   : 7s4p1d contracted to 3s2p1d pattern {511/31/1}
 Group   2 Type N   : 7s4p1d contracted to 3s2p1d pattern {511/31/1}
 Group   3 Type O   : 7s4p1d contracted to 3s2p1d pattern {511/31/1}
 Group   4 Type H   : 4s1p contracted to 2s1p pattern {31/1}

Atom   0C    basis set group =>   1
Atom   1C    basis set group =>   1
Atom   2C    basis set group =>   1
Atom   3C    basis set group =>   1
Atom   4C    basis set group =>   1
Atom   5C    basis set group =>   1
Atom   6C    basis set group =>   1
Atom   7C    basis set group =>   1
Atom   8C    basis set group =>   1
Atom   9C    basis set group =>   1
Atom  10C    basis set group =>   1
Atom  11C    basis set group =>   1
Atom  12C    basis set group =>   1
Atom  13N    basis set group =>   2
Atom  14C    basis set group =>   1
Atom  15C    basis set group =>   1
Atom  16C    basis set group =>   1
Atom  17O    basis set group =>   3
Atom  18N    basis set group =>   2
Atom  19C    basis set group =>   1
Atom  20C    basis set group =>   1
Atom  21C    basis set group =>   1
Atom  22C    basis set group =>   1
Atom  23C    basis set group =>   1
Atom  24O    basis set group =>   3
Atom  25N    basis set group =>   2
Atom  26O    basis set group =>   3
Atom  27O    basis set group =>   3
Atom  28H    basis set group =>   4
Atom  29H    basis set group =>   4
Atom  30H    basis set group =>   4
Atom  31H    basis set group =>   4
Atom  32H    basis set group =>   4
Atom  33H    basis set group =>   4
Atom  34H    basis set group =>   4
Atom  35H    basis set group =>   4
Atom  36H    basis set group =>   4
Atom  37H    basis set group =>   4
Atom  38H    basis set group =>   4
Atom  39H    basis set group =>   4
Atom  40H    basis set group =>   4
Atom  41H    basis set group =>   4
Atom  42H    basis set group =>   4
Atom  43H    basis set group =>   4
Atom  44H    basis set group =>   4
Atom  45H    basis set group =>   4
Atom  46H    basis set group =>   4
Atom  47H    basis set group =>   4
Atom  48H    basis set group =>   4
Atom  49H    basis set group =>   4
Atom  50H    basis set group =>   4
---------------------------------
AUXILIARY/J BASIS SET INFORMATION
---------------------------------
There are 4 groups of distinct atoms

 Group   1 Type C   : 12s5p4d2f1g contracted to 6s4p3d1f1g pattern {711111/2111/211/2/1}
 Group   2 Type N   : 12s5p4d2f1g contracted to 6s4p3d1f1g pattern {711111/2111/211/2/1}
 Group   3 Type O   : 12s5p4d2f1g contracted to 6s4p3d1f1g pattern {711111/2111/211/2/1}
 Group   4 Type H   : 5s2p1d contracted to 3s1p1d pattern {311/2/1}

Atom   0C    basis set group =>   1
Atom   1C    basis set group =>   1
Atom   2C    basis set group =>   1
Atom   3C    basis set group =>   1
Atom   4C    basis set group =>   1
Atom   5C    basis set group =>   1
Atom   6C    basis set group =>   1
Atom   7C    basis set group =>   1
Atom   8C    basis set group =>   1
Atom   9C    basis set group =>   1
Atom  10C    basis set group =>   1
Atom  11C    basis set group =>   1
Atom  12C    basis set group =>   1
Atom  13N    basis set group =>   2
Atom  14C    basis set group =>   1
Atom  15C    basis set group =>   1
Atom  16C    basis set group =>   1
Atom  17O    basis set group =>   3
Atom  18N    basis set group =>   2
Atom  19C    basis set group =>   1
Atom  20C    basis set group =>   1
Atom  21C    basis set group =>   1
Atom  22C    basis set group =>   1
Atom  23C    basis set group =>   1
Atom  24O    basis set group =>   3
Atom  25N    basis set group =>   2
Atom  26O    basis set group =>   3
Atom  27O    basis set group =>   3
Atom  28H    basis set group =>   4
Atom  29H    basis set group =>   4
Atom  30H    basis set group =>   4
Atom  31H    basis set group =>   4
Atom  32H    basis set group =>   4
Atom  33H    basis set group =>   4
Atom  34H    basis set group =>   4
Atom  35H    basis set group =>   4
Atom  36H    basis set group =>   4
Atom  37H    basis set group =>   4
Atom  38H    basis set group =>   4
Atom  39H    basis set group =>   4
Atom  40H    basis set group =>   4
Atom  41H    basis set group =>   4
Atom  42H    basis set group =>   4
Atom  43H    basis set group =>   4
Atom  44H    basis set group =>   4
Atom  45H    basis set group =>   4
Atom  46H    basis set group =>   4
Atom  47H    basis set group =>   4
Atom  48H    basis set group =>   4
Atom  49H    basis set group =>   4
Atom  50H    basis set group =>   4

Checking for AutoStart:
The File: 29.gbw exists
Trying to determine its content:
     ... Fine, the file contains calculation information
     ... Fine, the calculation information was read
     ... Fine, the file contains a basis set
     ... Fine, the basis set was read
     ... Fine, the file contains a geometry
     ... Fine, the geometry was read
     ... Fine, the file contains a set of orbitals
     ... Fine, the orbitals can be read
     => possible old guess file was deleted
     => GBW file was renamed to GES file
     => GES file is set as startup file
     => Guess is set to MORead
     ... now leaving AutoStart

------------------------------------------------------------------------------
                           ORCA GTO INTEGRAL CALCULATION
                           -- RI-GTO INTEGRALS CHOSEN --
------------------------------------------------------------------------------
------------------------------------------------------------------------------
                   ___                                                        
                  /   \      - P O W E R E D   B Y -                         
                 /     \                                                     
                 |  |  |   _    _      __       _____    __    __             
                 |  |  |  | |  | |    /  \     |  _  \  |  |  /  |          
                  \  \/   | |  | |   /    \    | | | |  |  | /  /          
                 / \  \   | |__| |  /  /\  \   | |_| |  |  |/  /          
                |  |  |   |  __  | /  /__\  \  |    /   |      \           
                |  |  |   | |  | | |   __   |  |    \   |  |\   \          
                \     /   | |  | | |  |  |  |  | |\  \  |  | \   \       
                 \___/    |_|  |_| |__|  |__|  |_| \__\ |__|  \__/        
                                                                              
                      - O R C A' S   B I G   F R I E N D -                    
                                      &                                       
                       - I N T E G R A L  F E E D E R -                       
                                                                              
 v1 FN, 2020, v2 2021                                                         
------------------------------------------------------------------------------


Reading SHARK input file 29.SHARKINP.tmp ... ok
----------------------
SHARK INTEGRAL PACKAGE
----------------------

Number of atoms                             ...     51
Number of basis functions                   ...    507
Number of shells                            ...    237
Maximum angular momentum                    ...      2
Integral batch strategy                     ... SHARK/LIBINT Hybrid
RI-J (if used) integral strategy            ... SPLIT-RIJ (Revised 2003 algorithm where possible)
Printlevel                                  ...      1
Contraction scheme used                     ... SEGMENTED contraction
Coulomb Range Separation                    ... NOT USED
Exchange Range Separation                   ... NOT USED
Finite Nucleus Model                        ... NOT USED
Auxiliary Coulomb fitting basis             ... AVAILABLE
   # of basis functions in Aux-J            ...   1625
   # of shells in Aux-J                     ...    535
   Maximum angular momentum in Aux-J        ...      4
Auxiliary J/K fitting basis                 ... NOT available
Auxiliary Correlation fitting basis         ... NOT available
Auxiliary 'external' fitting basis          ... NOT available
Integral threshold                          ...     2.500000e-11
Primitive cut-off                           ...     2.500000e-12
Primitive pair pre-selection threshold      ...     2.500000e-12

Calculating pre-screening integrals         ... done (  0.2 sec) Dimension = 237
Organizing shell pair data                  ... done (  0.3 sec)
Shell pair information
Total number of shell pairs                 ...     28203
Shell pairs after pre-screening             ...     19118
Total number of primitive shell pairs       ...    102359
Primitive shell pairs kept                  ...     43437
          la=0 lb=0:   5956 shell pairs
          la=1 lb=0:   7152 shell pairs
          la=1 lb=1:   2199 shell pairs
          la=2 lb=0:   2241 shell pairs
          la=2 lb=1:   1362 shell pairs
          la=2 lb=2:    208 shell pairs

Calculating one electron integrals          ... done (  0.5 sec)
Calculating RI/J V-Matrix + Cholesky decomp.... done (  0.3 sec)
Calculating Nuclear repulsion               ... done (  0.0 sec) ENN=   2712.495646174711 Eh

SHARK setup successfully completed in   2.3 seconds

Maximum memory used throughout the entire GTOINT-calculation: 114.9 MB
-------------------------------------------------------------------------------
                                 ORCA SCF
-------------------------------------------------------------------------------

------------
SCF SETTINGS
------------
Hamiltonian:
 Density Functional     Method          .... DFT(GTOs)
 Exchange Functional    Exchange        .... B88
   X-Alpha parameter    XAlpha          ....  0.666667
   Becke's b parameter  XBeta           ....  0.004200
 Correlation Functional Correlation     .... LYP
 LDA part of GGA corr.  LDAOpt          .... VWN-5
 Gradients option       PostSCFGGA      .... off
 Hybrid DFT is turned on
   Fraction HF Exchange ScalHFX         ....  0.200000
   Scaling of DF-GGA-X  ScalDFX         ....  0.720000
   Scaling of DF-GGA-C  ScalDFC         ....  0.810000
   Scaling of DF-LDA-C  ScalLDAC        ....  1.000000
   Perturbative correction              ....  0.000000
   Density functional embedding theory  .... OFF
   NL short-range parameter             ....  4.800000
 RI-approximation to the Coulomb term is turned on
   Number of AuxJ basis functions       .... 1625
   RIJ-COSX (HFX calculated with COS-X)).... on


General Settings:
 Integral files         IntName         .... 29
 Hartree-Fock type      HFTyp           .... RHF
 Total Charge           Charge          ....    0
 Multiplicity           Mult            ....    1
 Number of Electrons    NEL             ....  202
 Basis Dimension        Dim             ....  507
 Nuclear Repulsion      ENuc            ....   2712.4956461747 Eh

Convergence Acceleration:
 DIIS                   CNVDIIS         .... on
   Start iteration      DIISMaxIt       ....    12
   Startup error        DIISStart       ....  0.200000
   # of expansion vecs  DIISMaxEq       ....     5
   Bias factor          DIISBfac        ....   1.050
   Max. coefficient     DIISMaxC        ....  10.000
 Trust-Rad. Augm. Hess. CNVTRAH         .... auto
   Auto Start mean grad. ratio tolernc. ....  1.125000
   Auto Start start iteration           ....     1
   Auto Start num. interpolation iter.  ....    10
   Max. Number of Micro iterations      ....    16
   Max. Number of Macro iterations      .... Maxiter - #DIIS iter
   Number of Davidson start vectors     ....     2
   Converg. threshold I  (grad. norm)   ....   1.000e-05
   Converg. threshold II (energy diff.) ....   1.000e-08
   Grad. Scal. Fac. for Micro threshold ....   0.100
   Minimum threshold for Micro iter.    ....   0.010
   NR start threshold (gradient norm)   ....   0.001
   Initial trust radius                 ....   0.400
   Minimum AH scaling param. (alpha)    ....   1.000
   Maximum AH scaling param. (alpha)    .... 1000.000
   Orbital update algorithm             .... Taylor
   White noise on init. David. guess    .... on
   Maximum white noise                  ....   0.010
   Quad. conv. algorithm                .... NR
 SOSCF                  CNVSOSCF        .... on
   Start iteration      SOSCFMaxIt      ....   150
   Startup grad/error   SOSCFStart      ....  0.003300
 Level Shifting         CNVShift        .... on
   Level shift para.    LevelShift      ....    0.2500
   Turn off err/grad.   ShiftErr        ....    0.0010
 Zerner damping         CNVZerner       .... off
 Static damping         CNVDamp         .... on
   Fraction old density DampFac         ....    0.7000
   Max. Damping (<1)    DampMax         ....    0.9800
   Min. Damping (>=0)   DampMin         ....    0.0000
   Turn off err/grad.   DampErr         ....    0.1000
 Fernandez-Rico         CNVRico         .... off

SCF Procedure:
 Maximum # iterations   MaxIter         ....   125
 SCF integral mode      SCFMode         .... Direct
   Integral package                     .... SHARK and LIBINT hybrid scheme
 Reset frequency        DirectResetFreq ....    20
 Integral Threshold     Thresh          ....  2.500e-11 Eh
 Primitive CutOff       TCut            ....  2.500e-12 Eh

Convergence Tolerance:
 Convergence Check Mode ConvCheckMode   .... Total+1el-Energy
 Convergence forced     ConvForced      .... 0
 Energy Change          TolE            ....  1.000e-08 Eh
 1-El. energy change                    ....  1.000e-05 Eh
 Orbital Gradient       TolG            ....  1.000e-05
 Orbital Rotation angle TolX            ....  1.000e-05
 DIIS Error             TolErr          ....  5.000e-07


Diagonalization of the overlap matrix:
Smallest eigenvalue                        ... 2.035e-04
Time for diagonalization                   ...    0.068 sec
Threshold for overlap eigenvalues          ... 1.000e-08
Number of eigenvalues below threshold      ... 0
Time for construction of square roots      ...    0.035 sec
Total time needed                          ...    0.105 sec

---------------------
INITIAL GUESS: MOREAD
---------------------
Guess MOs are being read from file: 29.ges
Input Geometry matches current geometry (good)
Input basis set matches current basis set (good)
MOs were renormalized
MOs were reorthogonalized (Cholesky)
                      ------------------
                      INITIAL GUESS DONE (   0.1 sec)
                      ------------------
-------------------
DFT GRID GENERATION
-------------------

General Integration Accuracy     IntAcc      ... 4.388
Radial Grid Type                 RadialGrid  ... OptM3 with GC (2021)
Angular Grid (max. ang.)         AngularGrid ... 4 (Lebedev-302)
Angular grid pruning method      GridPruning ... 4 (adaptive)
Weight generation scheme         WeightScheme... Becke
Basis function cutoff            BFCut       ... 1.0000e-11
Integration weight cutoff        WCut        ... 1.0000e-14
Angular grids for H and He will be reduced by one unit
Partially contracted basis set               ... off
Rotationally invariant grid construction     ... off

Total number of grid points                  ...   239538
Total number of batches                      ...     3770
Average number of points per batch           ...       63
Average number of grid points per atom       ...     4697
Time for grid setup =   12.580 sec

--------------------
COSX GRID GENERATION
--------------------

GRIDX 1
-------
General Integration Accuracy     IntAcc      ... 3.816
Radial Grid Type                 RadialGrid  ... OptM3 with GC (2021)
Angular Grid (max. ang.)         AngularGrid ... 1 (Lebedev-50)
Angular grid pruning method      GridPruning ... 4 (adaptive)
Weight generation scheme         WeightScheme... Becke
Basis function cutoff            BFCut       ... 1.0000e-11
Integration weight cutoff        WCut        ... 1.0000e-14
Angular grids for H and He will be reduced by one unit
Partially contracted basis set               ... on
Rotationally invariant grid construction     ... off

Total number of grid points                  ...    30364
Total number of batches                      ...      502
Average number of points per batch           ...       60
Average number of grid points per atom       ...      595
UseSFitting                                  ... on

GRIDX 2
-------
General Integration Accuracy     IntAcc      ... 4.020
Radial Grid Type                 RadialGrid  ... OptM3 with GC (2021)
Angular Grid (max. ang.)         AngularGrid ... 2 (Lebedev-110)
Angular grid pruning method      GridPruning ... 4 (adaptive)
Weight generation scheme         WeightScheme... Becke
Basis function cutoff            BFCut       ... 1.0000e-11
Integration weight cutoff        WCut        ... 1.0000e-14
Angular grids for H and He will be reduced by one unit
Partially contracted basis set               ... on
Rotationally invariant grid construction     ... off

Total number of grid points                  ...    65356
Total number of batches                      ...     1048
Average number of points per batch           ...       62
Average number of grid points per atom       ...     1281
UseSFitting                                  ... on

GRIDX 3
-------
General Integration Accuracy     IntAcc      ... 4.338
Radial Grid Type                 RadialGrid  ... OptM3 with GC (2021)
Angular Grid (max. ang.)         AngularGrid ... 3 (Lebedev-194)
Angular grid pruning method      GridPruning ... 4 (adaptive)
Weight generation scheme         WeightScheme... Becke
Basis function cutoff            BFCut       ... 1.0000e-11
Integration weight cutoff        WCut        ... 1.0000e-14
Angular grids for H and He will be reduced by one unit
Partially contracted basis set               ... on
Rotationally invariant grid construction     ... off

Total number of grid points                  ...   142558
Total number of batches                      ...     2254
Average number of points per batch           ...       63
Average number of grid points per atom       ...     2795
UseSFitting                                  ... on

Time for X-Grid setup             =   18.546 sec

--------------
SCF ITERATIONS
--------------
ITER       Energy         Delta-E        Max-DP      RMS-DP      [F,P]     Damp
               ***  Starting incremental Fock matrix formation  ***
                      *** Initiating the SOSCF procedure ***
                      *** Re-Reading the Fockian *** 
                      *** Removing any level shift *** 
ITER      Energy       Delta-E        Grad      Rot      Max-DP    RMS-DP
  0  -1277.48274792 -1277.4827479195  0.000001  0.000001  0.000004  0.000000
               *** Restarting incremental Fock matrix formation ***
                  ***Gradient check signals convergence***
              ***Rediagonalizing the Fockian in SOSCF/NRSCF***

               *****************************************************
               *                     SUCCESS                       *
               *           SCF CONVERGED AFTER   1 CYCLES          *
               *****************************************************

Old exchange energy                            =    -33.964469661 Eh
New exchange energy                            =    -33.964525403 Eh
Exchange energy change after final integration =     -0.000055742 Eh
Total energy after final integration           =  -1277.482803661 Eh
Final COS-X integration done in                =   262.068 sec

----------------
TOTAL SCF ENERGY
----------------

Total Energy       :        -1277.48280366 Eh          -34762.07436 eV

Components:
Nuclear Repulsion  :         2712.49564617 Eh           73810.75900 eV
Electronic Energy  :        -3989.97844984 Eh         -108572.83336 eV
One Electron Energy:        -7132.90925107 Eh         -194096.32839 eV
Two Electron Energy:         3142.93080124 Eh           85523.49503 eV
Max COSX asymmetry :            0.00000508 Eh               0.00014 eV

Virial components:
Potential Energy   :        -2543.58471653 Eh          -69214.45893 eV
Kinetic Energy     :         1266.10191287 Eh           34452.38457 eV
Virial Ratio       :            2.00898892


DFT components:
N(Alpha)           :      101.000005661084 electrons
N(Beta)            :      101.000005661084 electrons
N(Total)           :      202.000011322168 electrons
E(X)               :     -134.962761392186 Eh       
E(C)               :       -8.151997144111 Eh       
E(XC)              :     -143.114758536298 Eh       
DFET-embed. en.    :        0.000000000000 Eh       

---------------
SCF CONVERGENCE
---------------

  Last Energy change         ...    1.0573e-10  Tolerance :   1.0000e-08
  Last MAX-Density change    ...    6.6613e-15  Tolerance :   1.0000e-07
  Last RMS-Density change    ...    3.9202e-17  Tolerance :   5.0000e-09
  Last Orbital Gradient      ...    6.7174e-07  Tolerance :   1.0000e-05
  Last Orbital Rotation      ...    2.4995e-06  Tolerance :   1.0000e-05

             **** THE GBW FILE WAS UPDATED (29.gbw) ****
             **** DENSITY 29.scfp WAS UPDATED ****
             **** ENERGY FILE WAS UPDATED (29.en.tmp) ****
             **** THE GBW FILE WAS UPDATED (29.gbw) ****
             **** DENSITY 29.scfp WAS UPDATED ****
----------------
ORBITAL ENERGIES
----------------

  NO   OCC          E(Eh)            E(eV) 
   0   2.0000     -19.152325      -521.1613 
   1   2.0000     -19.126492      -520.4583 
   2   2.0000     -19.108265      -519.9623 
   3   2.0000     -19.089097      -519.4407 
   4   2.0000     -14.386598      -391.4792 
   5   2.0000     -14.366316      -390.9273 
   6   2.0000     -14.353231      -390.5713 
   7   2.0000     -10.293102      -280.0895 
   8   2.0000     -10.288938      -279.9762 
   9   2.0000     -10.275041      -279.5981 
  10   2.0000     -10.236485      -278.5489 
  11   2.0000     -10.226790      -278.2851 
  12   2.0000     -10.224630      -278.2263 
  13   2.0000     -10.220660      -278.1183 
  14   2.0000     -10.212732      -277.9026 
  15   2.0000     -10.211969      -277.8818 
  16   2.0000     -10.197842      -277.4974 
  17   2.0000     -10.187944      -277.2281 
  18   2.0000     -10.186100      -277.1779 
  19   2.0000     -10.186095      -277.1777 
  20   2.0000     -10.185785      -277.1693 
  21   2.0000     -10.180850      -277.0350 
  22   2.0000     -10.180346      -277.0213 
  23   2.0000     -10.179131      -276.9882 
  24   2.0000     -10.178654      -276.9752 
  25   2.0000     -10.177033      -276.9312 
  26   2.0000     -10.175162      -276.8802 
  27   2.0000     -10.173605      -276.8379 
  28   2.0000      -1.059615       -28.8336 
  29   2.0000      -1.013601       -27.5815 
  30   2.0000      -1.007695       -27.4208 
  31   2.0000      -1.003313       -27.3015 
  32   2.0000      -0.998996       -27.1841 
  33   2.0000      -0.928807       -25.2741 
  34   2.0000      -0.916322       -24.9344 
  35   2.0000      -0.856808       -23.3149 
  36   2.0000      -0.841251       -22.8916 
  37   2.0000      -0.804873       -21.9017 
  38   2.0000      -0.783019       -21.3070 
  39   2.0000      -0.756771       -20.5928 
  40   2.0000      -0.750771       -20.4295 
  41   2.0000      -0.738127       -20.0855 
  42   2.0000      -0.731136       -19.8952 
  43   2.0000      -0.713412       -19.4129 
  44   2.0000      -0.687173       -18.6989 
  45   2.0000      -0.667799       -18.1717 
  46   2.0000      -0.646790       -17.6001 
  47   2.0000      -0.644511       -17.5380 
  48   2.0000      -0.620883       -16.8951 
  49   2.0000      -0.613842       -16.7035 
  50   2.0000      -0.594286       -16.1713 
  51   2.0000      -0.584515       -15.9055 
  52   2.0000      -0.565732       -15.3944 
  53   2.0000      -0.553489       -15.0612 
  54   2.0000      -0.547932       -14.9100 
  55   2.0000      -0.545399       -14.8411 
  56   2.0000      -0.532532       -14.4909 
  57   2.0000      -0.523597       -14.2478 
  58   2.0000      -0.512370       -13.9423 
  59   2.0000      -0.503066       -13.6891 
  60   2.0000      -0.496901       -13.5214 
  61   2.0000      -0.470374       -12.7995 
  62   2.0000      -0.464605       -12.6425 
  63   2.0000      -0.463323       -12.6077 
  64   2.0000      -0.462058       -12.5732 
  65   2.0000      -0.454431       -12.3657 
  66   2.0000      -0.450506       -12.2589 
  67   2.0000      -0.443602       -12.0710 
  68   2.0000      -0.433633       -11.7997 
  69   2.0000      -0.427072       -11.6212 
  70   2.0000      -0.425597       -11.5811 
  71   2.0000      -0.422765       -11.5040 
  72   2.0000      -0.418026       -11.3751 
  73   2.0000      -0.416138       -11.3237 
  74   2.0000      -0.406689       -11.0666 
  75   2.0000      -0.397515       -10.8169 
  76   2.0000      -0.395168       -10.7531 
  77   2.0000      -0.391765       -10.6605 
  78   2.0000      -0.386965       -10.5299 
  79   2.0000      -0.381809       -10.3896 
  80   2.0000      -0.377137       -10.2624 
  81   2.0000      -0.370434       -10.0800 
  82   2.0000      -0.365436        -9.9440 
  83   2.0000      -0.362980        -9.8772 
  84   2.0000      -0.355091        -9.6625 
  85   2.0000      -0.349122        -9.5001 
  86   2.0000      -0.344534        -9.3752 
  87   2.0000      -0.337135        -9.1739 
  88   2.0000      -0.332798        -9.0559 
  89   2.0000      -0.328457        -8.9378 
  90   2.0000      -0.319381        -8.6908 
  91   2.0000      -0.314641        -8.5618 
  92   2.0000      -0.288122        -7.8402 
  93   2.0000      -0.275650        -7.5008 
  94   2.0000      -0.263319        -7.1653 
  95   2.0000      -0.254071        -6.9136 
  96   2.0000      -0.246482        -6.7071 
  97   2.0000      -0.239080        -6.5057 
  98   2.0000      -0.237893        -6.4734 
  99   2.0000      -0.227461        -6.1895 
 100   2.0000      -0.197268        -5.3679 
 101   0.0000      -0.048092        -1.3086 
 102   0.0000      -0.019358        -0.5268 
 103   0.0000      -0.008478        -0.2307 
 104   0.0000       0.005430         0.1478 
 105   0.0000       0.022869         0.6223 
 106   0.0000       0.033673         0.9163 
 107   0.0000       0.039646         1.0788 
 108   0.0000       0.049095         1.3359 
 109   0.0000       0.062273         1.6945 
 110   0.0000       0.066778         1.8171 
 111   0.0000       0.073163         1.9909 
 112   0.0000       0.078329         2.1314 
 113   0.0000       0.086558         2.3554 
 114   0.0000       0.094411         2.5691 
 115   0.0000       0.098604         2.6832 
 116   0.0000       0.100991         2.7481 
 117   0.0000       0.108969         2.9652 
 118   0.0000       0.111987         3.0473 
 119   0.0000       0.112915         3.0726 
 120   0.0000       0.117381         3.1941 
 121   0.0000       0.126522         3.4428 
 122   0.0000       0.131273         3.5721 
 123   0.0000       0.136355         3.7104 
 124   0.0000       0.140898         3.8340 
 125   0.0000       0.145979         3.9723 
 126   0.0000       0.147413         4.0113 
 127   0.0000       0.152996         4.1632 
 128   0.0000       0.155249         4.2245 
 129   0.0000       0.160060         4.3555 
 130   0.0000       0.171345         4.6625 
 131   0.0000       0.174764         4.7556 
 132   0.0000       0.175125         4.7654 
 133   0.0000       0.184219         5.0129 
 134   0.0000       0.189579         5.1587 
 135   0.0000       0.204476         5.5641 
 136   0.0000       0.208667         5.6781 
 137   0.0000       0.210621         5.7313 
 138   0.0000       0.228699         6.2232 
 139   0.0000       0.241727         6.5777 
 140   0.0000       0.248649         6.7661 
 141   0.0000       0.257674         7.0117 
 142   0.0000       0.263998         7.1837 
 143   0.0000       0.271288         7.3821 
 144   0.0000       0.276142         7.5142 
 145   0.0000       0.279444         7.6041 
 146   0.0000       0.284487         7.7413 
 147   0.0000       0.288914         7.8617 
 148   0.0000       0.299225         8.1423 
 149   0.0000       0.303349         8.2546 
 150   0.0000       0.313738         8.5372 
 151   0.0000       0.318021         8.6538 
 152   0.0000       0.327668         8.9163 
 153   0.0000       0.336029         9.1438 
 154   0.0000       0.344831         9.3833 
 155   0.0000       0.350241         9.5305 
 156   0.0000       0.357352         9.7240 
 157   0.0000       0.363339         9.8870 
 158   0.0000       0.370641        10.0857 
 159   0.0000       0.381428        10.3792 
 160   0.0000       0.387996        10.5579 
 161   0.0000       0.391331        10.6487 
 162   0.0000       0.403995        10.9933 
 163   0.0000       0.411956        11.2099 
 164   0.0000       0.415082        11.2950 
 165   0.0000       0.429779        11.6949 
 166   0.0000       0.432283        11.7630 
 167   0.0000       0.448299        12.1988 
 168   0.0000       0.454646        12.3716 
 169   0.0000       0.457887        12.4597 
 170   0.0000       0.465556        12.6684 
 171   0.0000       0.471043        12.8177 
 172   0.0000       0.473941        12.8966 
 173   0.0000       0.478096        13.0097 
 174   0.0000       0.478461        13.0196 
 175   0.0000       0.486388        13.2353 
 176   0.0000       0.498520        13.5654 
 177   0.0000       0.504303        13.7228 
 178   0.0000       0.506030        13.7698 
 179   0.0000       0.512254        13.9391 
 180   0.0000       0.519228        14.1289 
 181   0.0000       0.523362        14.2414 
 182   0.0000       0.525601        14.3023 
 183   0.0000       0.529909        14.4196 
 184   0.0000       0.533527        14.5180 
 185   0.0000       0.540511        14.7080 
 186   0.0000       0.545841        14.8531 
 187   0.0000       0.550582        14.9821 
 188   0.0000       0.554049        15.0764 
 189   0.0000       0.564807        15.3692 
 190   0.0000       0.572218        15.5708 
 191   0.0000       0.577214        15.7068 
 192   0.0000       0.583281        15.8719 
 193   0.0000       0.585622        15.9356 
 194   0.0000       0.591935        16.1074 
 195   0.0000       0.599108        16.3026 
 196   0.0000       0.600651        16.3445 
 197   0.0000       0.603996        16.4356 
 198   0.0000       0.606627        16.5072 
 199   0.0000       0.616035        16.7632 
 200   0.0000       0.618743        16.8369 
 201   0.0000       0.619631        16.8610 
 202   0.0000       0.626600        17.0506 
 203   0.0000       0.629692        17.1348 
 204   0.0000       0.632645        17.2152 
 205   0.0000       0.638008        17.3611 
 206   0.0000       0.642120        17.4730 
 207   0.0000       0.643186        17.5020 
 208   0.0000       0.649415        17.6715 
 209   0.0000       0.651593        17.7307 
 210   0.0000       0.656439        17.8626 
 211   0.0000       0.659494        17.9457 
 212   0.0000       0.667045        18.1512 
 213   0.0000       0.668307        18.1856 
 214   0.0000       0.672687        18.3048 
 215   0.0000       0.680853        18.5270 
 216   0.0000       0.681018        18.5314 
 217   0.0000       0.686341        18.6763 
 218   0.0000       0.686483        18.6802 
 219   0.0000       0.688035        18.7224 
 220   0.0000       0.691419        18.8145 
 221   0.0000       0.696634        18.9564 
 222   0.0000       0.699966        19.0471 
 223   0.0000       0.707550        19.2534 
 224   0.0000       0.708884        19.2897 
 225   0.0000       0.714268        19.4362 
 226   0.0000       0.718341        19.5471 
 227   0.0000       0.721857        19.6427 
 228   0.0000       0.732049        19.9201 
 229   0.0000       0.737105        20.0576 
 230   0.0000       0.742002        20.1909 
 231   0.0000       0.746299        20.3078 
 232   0.0000       0.749940        20.4069 
 233   0.0000       0.758618        20.6430 
 234   0.0000       0.762309        20.7435 
 235   0.0000       0.764643        20.8070 
 236   0.0000       0.772046        21.0084 
 237   0.0000       0.779441        21.2097 
 238   0.0000       0.787341        21.4246 
 239   0.0000       0.797467        21.7002 
 240   0.0000       0.809265        22.0212 
 241   0.0000       0.812485        22.1088 
 242   0.0000       0.832832        22.6625 
 243   0.0000       0.834308        22.7027 
 244   0.0000       0.841193        22.8900 
 245   0.0000       0.849112        23.1055 
 246   0.0000       0.857772        23.3412 
 247   0.0000       0.863228        23.4896 
 248   0.0000       0.870613        23.6906 
 249   0.0000       0.879461        23.9313 
 250   0.0000       0.888899        24.1882 
 251   0.0000       0.905437        24.6382 
 252   0.0000       0.912158        24.8211 
 253   0.0000       0.932427        25.3726 
 254   0.0000       0.937580        25.5128 
 255   0.0000       0.938994        25.5513 
 256   0.0000       0.950626        25.8679 
 257   0.0000       0.970284        26.4028 
 258   0.0000       0.978883        26.6368 
 259   0.0000       0.995639        27.0927 
 260   0.0000       1.009027        27.4570 
 261   0.0000       1.015236        27.6260 
 262   0.0000       1.036760        28.2117 
 263   0.0000       1.047894        28.5147 
 264   0.0000       1.059423        28.8284 
 265   0.0000       1.061737        28.8913 
 266   0.0000       1.071031        29.1442 
 267   0.0000       1.082698        29.4617 
 268   0.0000       1.094313        29.7778 
 269   0.0000       1.101603        29.9761 
 270   0.0000       1.107728        30.1428 
 271   0.0000       1.114217        30.3194 
 272   0.0000       1.127979        30.6939 
 273   0.0000       1.141420        31.0596 
 274   0.0000       1.142868        31.0990 
 275   0.0000       1.164821        31.6964 
 276   0.0000       1.165968        31.7276 
 277   0.0000       1.173329        31.9279 
 278   0.0000       1.191188        32.4139 
 279   0.0000       1.206794        32.8385 
 280   0.0000       1.212069        32.9821 
 281   0.0000       1.226279        33.3687 
 282   0.0000       1.239510        33.7288 
 283   0.0000       1.246727        33.9252 
 284   0.0000       1.251879        34.0654 
 285   0.0000       1.263691        34.3868 
 286   0.0000       1.267899        34.5013 
 287   0.0000       1.273019        34.6406 
 288   0.0000       1.283383        34.9226 
 289   0.0000       1.295404        35.2497 
 290   0.0000       1.300948        35.4006 
 291   0.0000       1.307550        35.5802 
 292   0.0000       1.321256        35.9532 
 293   0.0000       1.330272        36.1985 
 294   0.0000       1.337728        36.4014 
 295   0.0000       1.342446        36.5298 
 296   0.0000       1.343229        36.5511 
 297   0.0000       1.359507        36.9941 
 298   0.0000       1.369884        37.2764 
 299   0.0000       1.378492        37.5107 
 300   0.0000       1.385623        37.7047 
 301   0.0000       1.393269        37.9128 
 302   0.0000       1.406526        38.2735 
 303   0.0000       1.411457        38.4077 
 304   0.0000       1.423203        38.7273 
 305   0.0000       1.433330        39.0029 
 306   0.0000       1.450906        39.4812 
 307   0.0000       1.451018        39.4842 
 308   0.0000       1.460663        39.7467 
 309   0.0000       1.494797        40.6755 
 310   0.0000       1.504284        40.9336 
 311   0.0000       1.521194        41.3938 
 312   0.0000       1.533075        41.7171 
 313   0.0000       1.547349        42.1055 
 314   0.0000       1.557442        42.3802 
 315   0.0000       1.566178        42.6179 
 316   0.0000       1.569799        42.7164 
 317   0.0000       1.572997        42.8034 
 318   0.0000       1.588564        43.2270 
 319   0.0000       1.602225        43.5987 
 320   0.0000       1.607594        43.7449 
 321   0.0000       1.624124        44.1947 
 322   0.0000       1.630203        44.3601 
 323   0.0000       1.639605        44.6159 
 324   0.0000       1.648831        44.8670 
 325   0.0000       1.658637        45.1338 
 326   0.0000       1.674766        45.5727 
 327   0.0000       1.676849        45.6294 
 328   0.0000       1.683751        45.8172 
 329   0.0000       1.689350        45.9695 
 330   0.0000       1.705430        46.4071 
 331   0.0000       1.710421        46.5429 
 332   0.0000       1.712489        46.5992 
 333   0.0000       1.722063        46.8597 
 334   0.0000       1.730167        47.0802 
 335   0.0000       1.733613        47.1740 
 336   0.0000       1.742921        47.4273 
 337   0.0000       1.745150        47.4879 
 338   0.0000       1.749925        47.6179 
 339   0.0000       1.752496        47.6879 
 340   0.0000       1.758350        47.8471 
 341   0.0000       1.769320        48.1456 
 342   0.0000       1.772554        48.2336 
 343   0.0000       1.773979        48.2724 
 344   0.0000       1.776186        48.3325 
 345   0.0000       1.783268        48.5252 
 346   0.0000       1.793854        48.8132 
 347   0.0000       1.796349        48.8811 
 348   0.0000       1.803095        49.0647 
 349   0.0000       1.807840        49.1938 
 350   0.0000       1.811108        49.2828 
 351   0.0000       1.817682        49.4616 
 352   0.0000       1.825100        49.6635 
 353   0.0000       1.834945        49.9314 
 354   0.0000       1.845295        50.2130 
 355   0.0000       1.848728        50.3064 
 356   0.0000       1.857787        50.5530 
 357   0.0000       1.864195        50.7273 
 358   0.0000       1.868532        50.8453 
 359   0.0000       1.873013        50.9673 
 360   0.0000       1.888633        51.3923 
 361   0.0000       1.890560        51.4448 
 362   0.0000       1.895271        51.5729 
 363   0.0000       1.904351        51.8200 
 364   0.0000       1.909741        51.9667 
 365   0.0000       1.923433        52.3393 
 366   0.0000       1.927044        52.4375 
 367   0.0000       1.935120        52.6573 
 368   0.0000       1.937875        52.7323 
 369   0.0000       1.940109        52.7930 
 370   0.0000       1.945938        52.9517 
 371   0.0000       1.948875        53.0316 
 372   0.0000       1.959097        53.3097 
 373   0.0000       1.962193        53.3940 
 374   0.0000       1.978132        53.8277 
 375   0.0000       1.979503        53.8650 
 376   0.0000       1.991953        54.2038 
 377   0.0000       2.003623        54.5214 
 378   0.0000       2.009631        54.6848 
 379   0.0000       2.017304        54.8936 
 380   0.0000       2.021070        54.9961 
 381   0.0000       2.036146        55.4064 
 382   0.0000       2.046085        55.6768 
 383   0.0000       2.048656        55.7468 
 384   0.0000       2.059709        56.0475 
 385   0.0000       2.068983        56.2999 
 386   0.0000       2.070725        56.3473 
 387   0.0000       2.078368        56.5553 
 388   0.0000       2.087967        56.8165 
 389   0.0000       2.095569        57.0233 
 390   0.0000       2.104054        57.2542 
 391   0.0000       2.114847        57.5479 
 392   0.0000       2.123103        57.7726 
 393   0.0000       2.135911        58.1211 
 394   0.0000       2.137398        58.1616 
 395   0.0000       2.150818        58.5267 
 396   0.0000       2.163549        58.8732 
 397   0.0000       2.165893        58.9369 
 398   0.0000       2.174391        59.1682 
 399   0.0000       2.185450        59.4691 
 400   0.0000       2.191912        59.6450 
 401   0.0000       2.195084        59.7313 
 402   0.0000       2.201481        59.9053 
 403   0.0000       2.204081        59.9761 
 404   0.0000       2.218637        60.3722 
 405   0.0000       2.222757        60.4843 
 406   0.0000       2.242088        61.0103 
 407   0.0000       2.247837        61.1668 
 408   0.0000       2.249422        61.2099 
 409   0.0000       2.263636        61.5967 
 410   0.0000       2.268023        61.7160 
 411   0.0000       2.276675        61.9515 
 412   0.0000       2.298887        62.5559 
 413   0.0000       2.313469        62.9527 
 414   0.0000       2.329076        63.3774 
 415   0.0000       2.336121        63.5691 
 416   0.0000       2.348877        63.9162 
 417   0.0000       2.355849        64.1059 
 418   0.0000       2.360117        64.2220 
 419   0.0000       2.375746        64.6473 
 420   0.0000       2.377804        64.7033 
 421   0.0000       2.397459        65.2382 
 422   0.0000       2.412905        65.6585 
 423   0.0000       2.420029        65.8523 
 424   0.0000       2.424821        65.9827 
 425   0.0000       2.437541        66.3289 
 426   0.0000       2.443247        66.4841 
 427   0.0000       2.454871        66.8004 
 428   0.0000       2.469285        67.1927 
 429   0.0000       2.479520        67.4712 
 430   0.0000       2.488515        67.7159 
 431   0.0000       2.505843        68.1874 
 432   0.0000       2.524927        68.7068 
 433   0.0000       2.530254        68.8517 
 434   0.0000       2.554979        69.5245 
 435   0.0000       2.561576        69.7040 
 436   0.0000       2.567934        69.8770 
 437   0.0000       2.590967        70.5038 
 438   0.0000       2.600776        70.7707 
 439   0.0000       2.602085        70.8063 
 440   0.0000       2.624561        71.4179 
 441   0.0000       2.628531        71.5260 
 442   0.0000       2.638465        71.7963 
 443   0.0000       2.660180        72.3872 
 444   0.0000       2.666541        72.5603 
 445   0.0000       2.670545        72.6692 
 446   0.0000       2.688075        73.1462 
 447   0.0000       2.704368        73.5896 
 448   0.0000       2.707693        73.6801 
 449   0.0000       2.713209        73.8302 
 450   0.0000       2.725055        74.1525 
 451   0.0000       2.737795        74.4992 
 452   0.0000       2.745048        74.6965 
 453   0.0000       2.762234        75.1642 
 454   0.0000       2.767780        75.3151 
 455   0.0000       2.775785        75.5330 
 456   0.0000       2.781679        75.6933 
 457   0.0000       2.791163        75.9514 
 458   0.0000       2.794827        76.0511 
 459   0.0000       2.816840        76.6501 
 460   0.0000       2.821521        76.7775 
 461   0.0000       2.836168        77.1761 
 462   0.0000       2.849337        77.5344 
 463   0.0000       2.866364        77.9977 
 464   0.0000       2.872140        78.1549 
 465   0.0000       2.874360        78.2153 
 466   0.0000       2.884830        78.5002 
 467   0.0000       2.888711        78.6058 
 468   0.0000       2.894000        78.7497 
 469   0.0000       2.911286        79.2201 
 470   0.0000       2.912890        79.2638 
 471   0.0000       2.930506        79.7431 
 472   0.0000       2.939621        79.9912 
 473   0.0000       2.942374        80.0661 
 474   0.0000       2.949344        80.2557 
 475   0.0000       2.957761        80.4848 
 476   0.0000       2.977818        81.0305 
 477   0.0000       2.982548        81.1592 
 478   0.0000       3.003604        81.7322 
 479   0.0000       3.017204        82.1023 
 480   0.0000       3.024854        82.3105 
 481   0.0000       3.037512        82.6549 
 482   0.0000       3.077002        83.7295 
 483   0.0000       3.100770        84.3762 
 484   0.0000       3.104228        84.4703 
 485   0.0000       3.113382        84.7194 
 486   0.0000       3.129843        85.1674 
 487   0.0000       3.144134        85.5562 
 488   0.0000       3.160106        85.9909 
 489   0.0000       3.167163        86.1829 
 490   0.0000       3.194363        86.9230 
 491   0.0000       3.196884        86.9916 
 492   0.0000       3.229113        87.8686 
 493   0.0000       3.285254        89.3963 
 494   0.0000       3.352369        91.2226 
 495   0.0000       3.379050        91.9486 
 496   0.0000       3.408028        92.7371 
 497   0.0000       3.427465        93.2661 
 498   0.0000       3.456870        94.0662 
 499   0.0000       3.476497        94.6003 
 500   0.0000       3.551797        96.6493 
 501   0.0000       3.583395        97.5091 
 502   0.0000       3.610182        98.2380 
 503   0.0000       3.659976        99.5930 
 504   0.0000       3.708786       100.9212 
 505   0.0000       3.731634       101.5429 
 506   0.0000       3.779261       102.8389 

                    ********************************
                    * MULLIKEN POPULATION ANALYSIS *
                    ********************************

-----------------------
MULLIKEN ATOMIC CHARGES
-----------------------
   0 C :    0.069389
   1 C :   -0.192626
   2 C :    0.100905
   3 C :    0.009801
   4 C :   -0.019156
   5 C :    0.008801
   6 C :   -0.009226
   7 C :    0.058038
   8 C :   -0.055444
   9 C :    0.046626
  10 C :    0.009609
  11 C :   -0.059324
  12 C :    0.074018
  13 N :    0.000413
  14 C :   -0.126226
  15 C :    0.078221
  16 C :    0.197773
  17 O :   -0.263409
  18 N :   -0.329828
  19 C :    0.231436
  20 C :    0.046970
  21 C :    0.104860
  22 C :    0.139525
  23 C :    0.095704
  24 O :   -0.244454
  25 N :   -0.121790
  26 O :   -0.245817
  27 O :   -0.288335
  28 H :    0.011737
  29 H :    0.019105
  30 H :   -0.004165
  31 H :    0.015879
  32 H :    0.047216
  33 H :    0.003361
  34 H :    0.003308
  35 H :    0.005486
  36 H :    0.021817
  37 H :   -0.047103
  38 H :   -0.032985
  39 H :   -0.022830
  40 H :   -0.062823
  41 H :    0.134791
  42 H :    0.011679
  43 H :    0.020352
  44 H :    0.025199
  45 H :    0.012481
  46 H :    0.010383
  47 H :   -0.014028
  48 H :    0.157230
  49 H :    0.185017
  50 H :    0.182441
Sum of atomic charges:    0.0000000

--------------------------------
MULLIKEN REDUCED ORBITAL CHARGES
--------------------------------
  0 C s       :     2.991088  s :     2.991088
      pz      :     0.972684  p :     2.909716
      px      :     0.948735
      py      :     0.988297
      dz2     :     0.009834  d :     0.029808
      dxz     :     0.004551
      dyz     :     0.002202
      dx2y2   :     0.004201
      dxy     :     0.009019
  1 C s       :     3.115873  s :     3.115873
      pz      :     1.033416  p :     3.022204
      px      :     1.000526
      py      :     0.988262
      dz2     :     0.012176  d :     0.054549
      dxz     :     0.010841
      dyz     :     0.009917
      dx2y2   :     0.010644
      dxy     :     0.010971
  2 C s       :     2.977178  s :     2.977178
      pz      :     0.928695  p :     2.893788
      px      :     0.983635
      py      :     0.981458
      dz2     :     0.007836  d :     0.028128
      dxz     :     0.006104
      dyz     :     0.004622
      dx2y2   :     0.003405
      dxy     :     0.006160
  3 C s       :     3.163291  s :     3.163291
      pz      :     0.943894  p :     2.790224
      px      :     0.904385
      py      :     0.941945
      dz2     :     0.002878  d :     0.036684
      dxz     :     0.003342
      dyz     :     0.008144
      dx2y2   :     0.011135
      dxy     :     0.011185
  4 C s       :     3.096472  s :     3.096472
      pz      :     0.992234  p :     2.895003
      px      :     0.933601
      py      :     0.969168
      dz2     :     0.001598  d :     0.027681
      dxz     :     0.002035
      dyz     :     0.006206
      dx2y2   :     0.008277
      dxy     :     0.009566
  5 C s       :     3.099699  s :     3.099699
      pz      :     0.954120  p :     2.830789
      px      :     0.968613
      py      :     0.908056
      dz2     :     0.011398  d :     0.060712
      dxz     :     0.008490
      dyz     :     0.011917
      dx2y2   :     0.011983
      dxy     :     0.016923
  6 C s       :     3.143156  s :     3.143156
      pz      :     0.970458  p :     2.820818
      px      :     0.931023
      py      :     0.919337
      dz2     :     0.006549  d :     0.045251
      dxz     :     0.007721
      dyz     :     0.008936
      dx2y2   :     0.011659
      dxy     :     0.010386
  7 C s       :     3.131622  s :     3.131622
      pz      :     1.016124  p :     2.762638
      px      :     0.916888
      py      :     0.829626
      dz2     :     0.007057  d :     0.047702
      dxz     :     0.008170
      dyz     :     0.008202
      dx2y2   :     0.013609
      dxy     :     0.010665
  8 C s       :     3.270401  s :     3.270401
      pz      :     0.931964  p :     2.748394
      px      :     0.880934
      py      :     0.935495
      dz2     :     0.004319  d :     0.036649
      dxz     :     0.005926
      dyz     :     0.006843
      dx2y2   :     0.009981
      dxy     :     0.009580
  9 C s       :     3.151251  s :     3.151251
      pz      :     0.993573  p :     2.764660
      px      :     0.905298
      py      :     0.865789
      dz2     :     0.006651  d :     0.037464
      dxz     :     0.005881
      dyz     :     0.005727
      dx2y2   :     0.008417
      dxy     :     0.010789
 10 C s       :     3.154648  s :     3.154648
      pz      :     0.959424  p :     2.799122
      px      :     0.968026
      py      :     0.871672
      dz2     :     0.004374  d :     0.036621
      dxz     :     0.006694
      dyz     :     0.006119
      dx2y2   :     0.010123
      dxy     :     0.009312
 11 C s       :     3.295405  s :     3.295405
      pz      :     0.970149  p :     2.728095
      px      :     0.789313
      py      :     0.968633
      dz2     :     0.003909  d :     0.035824
      dxz     :     0.005662
      dyz     :     0.007576
      dx2y2   :     0.011099
      dxy     :     0.007579
 12 C s       :     2.961878  s :     2.961878
      pz      :     1.017683  p :     2.900464
      px      :     1.058192
      py      :     0.824588
      dz2     :     0.008832  d :     0.063640
      dxz     :     0.009794
      dyz     :     0.011825
      dx2y2   :     0.015930
      dxy     :     0.017258
 13 N s       :     3.322991  s :     3.322991
      pz      :     1.380313  p :     3.648978
      px      :     1.111524
      py      :     1.157141
      dz2     :     0.004508  d :     0.027617
      dxz     :     0.004225
      dyz     :     0.005176
      dx2y2   :     0.006864
      dxy     :     0.006844
 14 C s       :     3.286113  s :     3.286113
      pz      :     0.855224  p :     2.803058
      px      :     0.995872
      py      :     0.951962
      dz2     :     0.009042  d :     0.037055
      dxz     :     0.008868
      dyz     :     0.003358
      dx2y2   :     0.007035
      dxy     :     0.008751
 15 C s       :     3.023819  s :     3.023819
      pz      :     0.873529  p :     2.841128
      px      :     0.936403
      py      :     1.031196
      dz2     :     0.013597  d :     0.056832
      dxz     :     0.017274
      dyz     :     0.009895
      dx2y2   :     0.005914
      dxy     :     0.010153
 16 C s       :     3.054488  s :     3.054488
      pz      :     0.899496  p :     2.642189
      px      :     0.867031
      py      :     0.875662
      dz2     :     0.025976  d :     0.105550
      dxz     :     0.031844
      dyz     :     0.019302
      dx2y2   :     0.015536
      dxy     :     0.012893
 17 O s       :     3.751229  s :     3.751229
      pz      :     1.351468  p :     4.496337
      px      :     1.686840
      py      :     1.458029
      dz2     :     0.005944  d :     0.015842
      dxz     :     0.004201
      dyz     :     0.004129
      dx2y2   :     0.000628
      dxy     :     0.000940
 18 N s       :     3.439726  s :     3.439726
      pz      :     1.347562  p :     3.866091
      px      :     1.139600
      py      :     1.378929
      dz2     :     0.004329  d :     0.024011
      dxz     :     0.005193
      dyz     :     0.003473
      dx2y2   :     0.005879
      dxy     :     0.005136
 19 C s       :     2.940047  s :     2.940047
      pz      :     0.967499  p :     2.778000
      px      :     0.867951
      py      :     0.942549
      dz2     :     0.011651  d :     0.050517
      dxz     :     0.009415
      dyz     :     0.006178
      dx2y2   :     0.010832
      dxy     :     0.012441
 20 C s       :     2.983363  s :     2.983363
      pz      :     0.951598  p :     2.934813
      px      :     1.015030
      py      :     0.968184
      dz2     :     0.007145  d :     0.034855
      dxz     :     0.008291
      dyz     :     0.005745
      dx2y2   :     0.004290
      dxy     :     0.009384
 21 C s       :     3.055299  s :     3.055299
      pz      :     0.959787  p :     2.767714
      px      :     0.994287
      py      :     0.813640
      dz2     :     0.014099  d :     0.072127
      dxz     :     0.012261
      dyz     :     0.018265
      dx2y2   :     0.010924
      dxy     :     0.016579
 22 C s       :     3.037310  s :     3.037310
      pz      :     0.933379  p :     2.726666
      px      :     0.993372
      py      :     0.799915
      dz2     :     0.015725  d :     0.096499
      dxz     :     0.018063
      dyz     :     0.020589
      dx2y2   :     0.019137
      dxy     :     0.022986
 23 C s       :     3.075700  s :     3.075700
      pz      :     0.957423  p :     2.722974
      px      :     0.906984
      py      :     0.858567
      dz2     :     0.028858  d :     0.105623
      dxz     :     0.034192
      dyz     :     0.017290
      dx2y2   :     0.012693
      dxy     :     0.012590
 24 O s       :     3.754519  s :     3.754519
      pz      :     1.368038  p :     4.473584
      px      :     1.716530
      py      :     1.389017
      dz2     :     0.006460  d :     0.016350
      dxz     :     0.004209
      dyz     :     0.004690
      dx2y2   :     0.000445
      dxy     :     0.000545
 25 N s       :     3.372124  s :     3.372124
      pz      :     1.118718  p :     3.730714
      px      :     1.080323
      py      :     1.531673
      dz2     :     0.004631  d :     0.018952
      dxz     :     0.005270
      dyz     :     0.002847
      dx2y2   :     0.003019
      dxy     :     0.003185
 26 O s       :     3.727847  s :     3.727847
      pz      :     1.443204  p :     4.504854
      px      :     1.828706
      py      :     1.232944
      dz2     :     0.003028  d :     0.013117
      dxz     :     0.001538
      dyz     :     0.005062
      dx2y2   :     0.001760
      dxy     :     0.001729
 27 O s       :     3.715202  s :     3.715202
      pz      :     1.308600  p :     4.560949
      px      :     1.716404
      py      :     1.535944
      dz2     :     0.002197  d :     0.012184
      dxz     :     0.002964
      dyz     :     0.002018
      dx2y2   :     0.002580
      dxy     :     0.002425
 28 H s       :     0.965769  s :     0.965769
      pz      :     0.013564  p :     0.022494
      px      :     0.004122
      py      :     0.004808
 29 H s       :     0.957891  s :     0.957891
      pz      :     0.005349  p :     0.023003
      px      :     0.005848
      py      :     0.011806
 30 H s       :     0.981082  s :     0.981082
      pz      :     0.005282  p :     0.023083
      px      :     0.008425
      py      :     0.009376
 31 H s       :     0.961207  s :     0.961207
      pz      :     0.005237  p :     0.022914
      px      :     0.005407
      py      :     0.012269
 32 H s       :     0.930025  s :     0.930025
      pz      :     0.006142  p :     0.022759
      px      :     0.010160
      py      :     0.006457
 33 H s       :     0.973923  s :     0.973923
      pz      :     0.004167  p :     0.022716
      px      :     0.010650
      py      :     0.007899
 34 H s       :     0.972467  s :     0.972467
      pz      :     0.006724  p :     0.024226
      px      :     0.013341
      py      :     0.004161
 35 H s       :     0.970101  s :     0.970101
      pz      :     0.006702  p :     0.024413
      px      :     0.012310
      py      :     0.005401
 36 H s       :     0.954888  s :     0.954888
      pz      :     0.005402  p :     0.023294
      px      :     0.007824
      py      :     0.010068
 37 H s       :     1.023067  s :     1.023067
      pz      :     0.007965  p :     0.024036
      px      :     0.011858
      py      :     0.004213
 38 H s       :     1.009462  s :     1.009462
      pz      :     0.004489  p :     0.023523
      px      :     0.008947
      py      :     0.010087
 39 H s       :     1.000092  s :     1.000092
      pz      :     0.007228  p :     0.022738
      px      :     0.003940
      py      :     0.011570
 40 H s       :     1.039366  s :     1.039366
      pz      :     0.007743  p :     0.023457
      px      :     0.011657
      py      :     0.004058
 41 H s       :     0.823624  s :     0.823624
      pz      :     0.011866  p :     0.041585
      px      :     0.022680
      py      :     0.007039
 42 H s       :     0.963805  s :     0.963805
      pz      :     0.013935  p :     0.024516
      px      :     0.005145
      py      :     0.005436
 43 H s       :     0.958489  s :     0.958489
      pz      :     0.005187  p :     0.021159
      px      :     0.003903
      py      :     0.012070
 44 H s       :     0.953266  s :     0.953266
      pz      :     0.014637  p :     0.021535
      px      :     0.003436
      py      :     0.003462
 45 H s       :     0.966401  s :     0.966401
      pz      :     0.003959  p :     0.021118
      px      :     0.006832
      py      :     0.010327
 46 H s       :     0.967724  s :     0.967724
[...]
 24 O s       :     3.570433  s :     3.570433
      pz      :     1.476364  p :     4.618252
      px      :     1.744669
      py      :     1.397219
      dz2     :     0.013105  d :     0.028165
      dxz     :     0.007466
      dyz     :     0.006080
      dx2y2   :     0.000743
      dxy     :     0.000772
 25 N s       :     3.071390  s :     3.071390
      pz      :     1.201431  p :     3.878269
      px      :     1.175601
      py      :     1.501237
      dz2     :     0.012488  d :     0.049507
      dxz     :     0.015700
      dyz     :     0.006357
      dx2y2   :     0.007714
      dxy     :     0.007249
 26 O s       :     3.471691  s :     3.471691
      pz      :     1.522870  p :     4.618425
      px      :     1.805145
      py      :     1.290410
      dz2     :     0.004920  d :     0.024936
      dxz     :     0.001471
      dyz     :     0.010608
      dx2y2   :     0.004350
      dxy     :     0.003588
 27 O s       :     3.432752  s :     3.432752
      pz      :     1.374368  p :     4.668744
      px      :     1.731590
      py      :     1.562786
      dz2     :     0.005051  d :     0.023577
      dxz     :     0.006235
      dyz     :     0.004584
      dx2y2   :     0.004290
      dxy     :     0.003416
 28 H s       :     0.915872  s :     0.915872
      pz      :     0.040038  p :     0.063843
      px      :     0.012248
      py      :     0.011558
 29 H s       :     0.908068  s :     0.908068
      pz      :     0.014446  p :     0.064725
      px      :     0.017058
      py      :     0.033221
 30 H s       :     0.923646  s :     0.923646
      pz      :     0.013180  p :     0.064574
      px      :     0.024313
      py      :     0.027081
 31 H s       :     0.906980  s :     0.906980
      pz      :     0.015437  p :     0.063974
      px      :     0.013631
      py      :     0.034906
 32 H s       :     0.899401  s :     0.899401
      pz      :     0.018710  p :     0.064856
      px      :     0.028860
      py      :     0.017286
 33 H s       :     0.911550  s :     0.911550
      pz      :     0.011213  p :     0.060862
      px      :     0.029578
      py      :     0.020072
 34 H s       :     0.899543  s :     0.899543
      pz      :     0.020803  p :     0.072094
      px      :     0.038540
      py      :     0.012750
 35 H s       :     0.914781  s :     0.914781
      pz      :     0.020131  p :     0.069695
      px      :     0.036046
      py      :     0.013518
 36 H s       :     0.907708  s :     0.907708
      pz      :     0.016233  p :     0.066155
      px      :     0.022424
      py      :     0.027498
 37 H s       :     0.908974  s :     0.908974
      pz      :     0.023776  p :     0.071670
      px      :     0.034358
      py      :     0.013536
 38 H s       :     0.906650  s :     0.906650
      pz      :     0.014040  p :     0.068701
      px      :     0.025744
      py      :     0.028916
 39 H s       :     0.907414  s :     0.907414
      pz      :     0.021043  p :     0.065848
      px      :     0.012294
      py      :     0.032512
 40 H s       :     0.913156  s :     0.913156
      pz      :     0.022952  p :     0.069931
      px      :     0.033755
      py      :     0.013223
 41 H s       :     0.784202  s :     0.784202
      pz      :     0.033161  p :     0.109477
      px      :     0.058474
      py      :     0.017841
 42 H s       :     0.885797  s :     0.885797
      pz      :     0.042394  p :     0.074484
      px      :     0.014240
      py      :     0.017850
 43 H s       :     0.907920  s :     0.907920
      pz      :     0.014476  p :     0.061900
      px      :     0.011325
      py      :     0.036099
 44 H s       :     0.905533  s :     0.905533
      pz      :     0.043123  p :     0.065181
      px      :     0.011291
      py      :     0.010767
 45 H s       :     0.904335  s :     0.904335
      pz      :     0.011996  p :     0.061605
      px      :     0.019588
      py      :     0.030021
 46 H s       :     0.906738  s :     0.906738
      pz      :     0.020236  p :     0.065775
      px      :     0.019373
      py      :     0.026166
 47 H s       :     0.920940  s :     0.920940
      pz      :     0.017780  p :     0.067145
      px      :     0.027667
      py      :     0.021698
 48 H s       :     0.775354  s :     0.775354
      pz      :     0.042583  p :     0.119681
      px      :     0.037877
      py      :     0.039221
 49 H s       :     0.731787  s :     0.731787
      pz      :     0.071714  p :     0.161367
      px      :     0.042536
      py      :     0.047117
 50 H s       :     0.732552  s :     0.732552
      pz      :     0.079452  p :     0.174548
      px      :     0.058282
      py      :     0.036814


                      *****************************
                      * MAYER POPULATION ANALYSIS *
                      *****************************

  NA   - Mulliken gross atomic population
  ZA   - Total nuclear charge
  QA   - Mulliken gross atomic charge
  VA   - Mayer's total valence
  BVA  - Mayer's bonded valence
  FA   - Mayer's free valence

  ATOM       NA         ZA         QA         VA         BVA        FA
  0 C      5.9306     6.0000     0.0694     3.9630     3.9630     0.0000
  1 C      6.1926     6.0000    -0.1926     4.0520     4.0520     0.0000
  2 C      5.8991     6.0000     0.1009     3.9072     3.9072    -0.0000
  3 C      5.9902     6.0000     0.0098     3.9976     3.9976    -0.0000
  4 C      6.0192     6.0000    -0.0192     3.9409     3.9409     0.0000
  5 C      5.9912     6.0000     0.0088     3.9372     3.9372    -0.0000
  6 C      6.0092     6.0000    -0.0092     3.6289     3.6289     0.0000
  7 C      5.9420     6.0000     0.0580     3.8439     3.8439    -0.0000
  8 C      6.0554     6.0000    -0.0554     3.7611     3.7611     0.0000
  9 C      5.9534     6.0000     0.0466     3.7671     3.7671    -0.0000
 10 C      5.9904     6.0000     0.0096     3.8051     3.8051    -0.0000
 11 C      6.0593     6.0000    -0.0593     3.7725     3.7725    -0.0000
 12 C      5.9260     6.0000     0.0740     3.9108     3.9108    -0.0000
 13 N      6.9996     7.0000     0.0004     3.4145     3.4145     0.0000
 14 C      6.1262     6.0000    -0.1262     3.8491     3.8491    -0.0000
 15 C      5.9218     6.0000     0.0782     3.9642     3.9642    -0.0000
 16 C      5.8022     6.0000     0.1978     4.1593     4.1593    -0.0000
 17 O      8.2634     8.0000    -0.2634     2.2814     2.2814     0.0000
 18 N      7.3298     7.0000    -0.3298     3.1389     3.1389     0.0000
 19 C      5.7686     6.0000     0.2314     3.9863     3.9863    -0.0000
 20 C      5.9530     6.0000     0.0470     4.0260     4.0260     0.0000
 21 C      5.8951     6.0000     0.1049     4.1696     4.1696     0.0000
 22 C      5.8605     6.0000     0.1395     3.8675     3.8675    -0.0000
 23 C      5.9043     6.0000     0.0957     4.3431     4.3431     0.0000
 24 O      8.2445     8.0000    -0.2445     2.2651     2.2651    -0.0000
 25 N      7.1218     7.0000    -0.1218     3.2069     3.2069     0.0000
 26 O      8.2458     8.0000    -0.2458     2.1253     2.1253    -0.0000
 27 O      8.2883     8.0000    -0.2883     2.0893     2.0893    -0.0000
 28 H      0.9883     1.0000     0.0117     0.9958     0.9958    -0.0000
 29 H      0.9809     1.0000     0.0191     1.0017     1.0017    -0.0000
 30 H      1.0042     1.0000    -0.0042     0.9894     0.9894    -0.0000
 31 H      0.9841     1.0000     0.0159     0.9957     0.9957     0.0000
 32 H      0.9528     1.0000     0.0472     1.0028     1.0028     0.0000
 33 H      0.9966     1.0000     0.0034     0.9972     0.9972    -0.0000
 34 H      0.9967     1.0000     0.0033     0.9970     0.9970    -0.0000
 35 H      0.9945     1.0000     0.0055     0.9841     0.9841     0.0000
 36 H      0.9782     1.0000     0.0218     0.9748     0.9748    -0.0000
 37 H      1.0471     1.0000    -0.0471     0.9923     0.9923    -0.0000
 38 H      1.0330     1.0000    -0.0330     0.9768     0.9768     0.0000
 39 H      1.0228     1.0000    -0.0228     0.9768     0.9768     0.0000
 40 H      1.0628     1.0000    -0.0628     0.9819     0.9819    -0.0000
 41 H      0.8652     1.0000     0.1348     1.0007     1.0007    -0.0000
 42 H      0.9883     1.0000     0.0117     1.0333     1.0333    -0.0000
 43 H      0.9796     1.0000     0.0204     0.9943     0.9943    -0.0000
 44 H      0.9748     1.0000     0.0252     0.9861     0.9861     0.0000
 45 H      0.9875     1.0000     0.0125     1.0015     1.0015     0.0000
 46 H      0.9896     1.0000     0.0104     0.9894     0.9894    -0.0000
 47 H      1.0140     1.0000    -0.0140     0.9966     0.9966    -0.0000
 48 H      0.8428     1.0000     0.1572     1.0127     1.0127     0.0000
 49 H      0.8150     1.0000     0.1850     1.0124     1.0124     0.0000
 50 H      0.8176     1.0000     0.1824     1.0101     1.0101     0.0000

  Mayer bond orders larger than 0.100000
B(  0-C ,  1-C ) :   1.0632 B(  0-C , 28-H ) :   0.9590 B(  0-C , 29-H ) :   0.9453 
B(  0-C , 30-H ) :   0.9512 B(  1-C ,  2-C ) :   1.0503 B(  1-C ,  3-C ) :   0.9572 
B(  1-C ,  5-C ) :   0.9684 B(  2-C , 31-H ) :   0.9548 B(  2-C , 32-H ) :   0.9536 
B(  2-C , 33-H ) :   0.9512 B(  3-C ,  4-C ) :   1.9959 B(  3-C , 34-H ) :   0.9788 
B(  4-C , 35-H ) :   0.9474 B(  4-C , 36-H ) :   0.9484 B(  5-C ,  6-C ) :   1.4686 
B(  5-C , 13-N ) :   1.2576 B(  6-C ,  7-C ) :   1.2133 B(  6-C , 14-C ) :   0.9497 
B(  7-C ,  8-C ) :   1.2912 B(  7-C , 12-C ) :   1.2674 B(  8-C ,  9-C ) :   1.3915 
B(  8-C , 37-H ) :   0.9923 B(  9-C , 10-C ) :   1.3211 B(  9-C , 38-H ) :   0.9936 
B( 10-C , 11-C ) :   1.3911 B( 10-C , 39-H ) :   0.9854 B( 11-C , 12-C ) :   1.3088 
B( 11-C , 40-H ) :   0.9975 B( 12-C , 13-N ) :   1.1763 B( 13-N , 41-H ) :   0.9043 
B( 14-C , 15-C ) :   1.8245 B( 14-C , 42-H ) :   0.9346 B( 15-C , 16-C ) :   0.9366 
B( 15-C , 25-N ) :   1.0721 B( 16-C , 17-O ) :   2.0693 B( 16-C , 18-N ) :   1.0883 
B( 18-N , 19-C ) :   0.9465 B( 18-N , 22-C ) :   0.9753 B( 19-C , 20-C ) :   1.0944 
B( 19-C , 43-H ) :   0.9339 B( 19-C , 44-H ) :   0.9361 B( 20-C , 21-C ) :   1.0630 
B( 20-C , 45-H ) :   0.9303 B( 20-C , 46-H ) :   0.9171 B( 21-C , 22-C ) :   0.9370 
B( 21-C , 27-O ) :   1.1074 B( 21-C , 47-H ) :   0.9268 B( 22-C , 23-C ) :   0.9039 
B( 22-C , 26-O ) :   1.0916 B( 23-C , 24-O ) :   2.1000 B( 23-C , 25-N ) :   1.1625 
B( 25-N , 48-H ) :   0.8800 B( 26-O , 49-H ) :   0.9496 B( 27-O , 50-H ) :   0.9616 


-------
TIMINGS
-------

Total SCF time: 0 days 0 hours 10 min 4 sec 

Total time                  ....     604.416 sec
Sum of individual times     ....     602.952 sec  ( 99.8%)

Fock matrix formation       ....     571.039 sec  ( 94.5%)
  Split-RI-J                ....      34.070 sec  (  6.0% of F)
  Chain of spheres X        ....     506.815 sec  ( 88.8% of F)
  XC integration            ....      30.006 sec  (  5.3% of F)
    Basis function eval.    ....       9.106 sec  ( 30.3% of XC)
    Density eval.           ....      12.800 sec  ( 42.7% of XC)
    XC-Functional eval.     ....       1.558 sec  (  5.2% of XC)
    XC-Potential eval.      ....       5.155 sec  ( 17.2% of XC)
Diagonalization             ....       0.196 sec  (  0.0%)
Density matrix formation    ....       0.049 sec  (  0.0%)
Population analysis         ....       0.160 sec  (  0.0%)
Initial guess               ....       0.114 sec  (  0.0%)
Orbital Transformation      ....       0.000 sec  (  0.0%)
Orbital Orthonormalization  ....       0.091 sec  (  0.0%)
DIIS solution               ....       0.062 sec  (  0.0%)
SOSCF solution              ....       0.206 sec  (  0.0%)
Grid generation             ....      31.126 sec  (  5.1%)

Maximum memory used throughout the entire SCF-calculation: 216.6 MB

-------------------------   --------------------
FINAL SINGLE POINT ENERGY     -1277.482803661474
-------------------------   --------------------


                            ***************************************
                            *     ORCA property calculations      *
                            ***************************************

                                    ---------------------
                                    Active property flags
                                    ---------------------
   (+) Dipole Moment
   (+) Polarizability


------------------------------------------------------------------------------
                       ORCA ELECTRIC PROPERTIES CALCULATION
------------------------------------------------------------------------------

Dipole Moment Calculation                       ... on
Quadrupole Moment Calculation                   ... off
Polarizability Calculation                      ... Analytic (CP-SCF)
GBWName                                         ... 29.gbw
Electron density                                ... 29.scfp
The origin for moment calculation is the CENTER OF MASS  = ( 0.641738,  0.322265  0.023748)

-------------
DIPOLE MOMENT
-------------
                                X             Y             Z
Electronic contribution:     12.93750       9.86526       2.03281
Nuclear contribution   :    -13.67978      -9.79443      -0.88355
                        -----------------------------------------
Total Dipole Moment    :     -0.74228       0.07083       1.14925
                        -----------------------------------------
Magnitude (a.u.)       :      1.36996
Magnitude (Debye)      :      3.48215



--------------------
Rotational spectrum 
--------------------
 
Rotational constants in cm-1:     0.009118     0.004164     0.003307 
Rotational constants in MHz :   273.336392   124.824244    99.127989 

 Dipole components along the rotational axes: 
x,y,z [a.u.] :     0.915850     0.217507     0.995333 
x,y,z [Debye]:     2.327906     0.552860     2.529935 

 
Transforming and storing MO dipole integrals   ... done

                ... starting polarizability calculation

The origin for moment calculation is the CENTER OF MASS  = ( 0.641738,  0.322265  0.023748)
Opening the Dipole integral file               ... (29.dmo.tmp) done
Reading Dipole-MO integrals                    ... done
Solving CP-SCF equations                       ... 
------------------------------------------------------------------------------
                           ORCA CP-SCF CALCULATION
------------------------------------------------------------------------------

Input orbitals are from        ... 29.gbw
Input Perturbation             ... 29.cpv.tmp
Wavefunction output            ... 29.cpu.tmp
Perturbation mode              ... Real perturbation (singlet)
Solver                         ... POPLE
Max. number of iterations      ... 64
Convergence tolerance          ... 1.000e-04
Integral handling              ... Direct
DFT GridXC                     ... 1
COSX GridX                     ... 1
COSX IntAccX                   ... 3.067
COSX Algorithm                 ... Auto
Number of perturbations        ... 3
Number of operators            ... 1
Orbital ranges used for CP-SCF:
 Operator 0:  Orbitals   0...100  to 101...506
Variables per perturbation     ... 41006
DFT calculation                         ... on
XC functional terms                     ... on
Exchange functional (SCF)               ... B88
Exchange functional (CP-SCF)            ... B88
   X-Alpha parameter    XAlpha (SCF)    ...  0.666667
   X-Alpha parameter    XAlpha (CP-SCF) ...  0.666667
   Becke's b parameter  XBeta (SCF)     ...  0.004200
   Becke's b parameter  XBeta (CP-SCF)  ...  0.004200
Correlation functional (SCF)            ... LYP
Correlation functional (CP-SCF)         ... LYP
 LDA part of GGA corr.  LDAOpt (SCF)    ... VWN-5
 LDA part of GGA corr.  LDAOpt (CP-SCF) ... VWN-5
Hybrid DFT                              ... on
   Exchange mixing (SCF)                ...  0.200
   Exchange mixing (CP-SCF)             ...  0.200
   GGA exch. scaling(SCF)               ...  0.720
   GGA exch. scaling (CP-SCF)           ...  0.720
   GGA corr. scaling (SCF)              ...  0.810
   GGA corr. scaling (CP-SCF)           ...  0.810

CP-SCF GRID
-----------

General Integration Accuracy     IntAcc      ... 3.467
Radial Grid Type                 RadialGrid  ... OptM3 with GC (2021)
Angular Grid (max. ang.)         AngularGrid ... 1 (Lebedev-50)
Angular grid pruning method      GridPruning ... 4 (adaptive)
Weight generation scheme         WeightScheme... Becke
Basis function cutoff            BFCut       ... 1.0000e-11
Integration weight cutoff        WCut        ... 1.0000e-14
Angular grids for H and He will be reduced by one unit
Partially contracted basis set               ... off
Rotationally invariant grid construction     ... off

Total number of grid points                  ...    34584
Total number of batches                      ...      569
Average number of points per batch           ...       60
Average number of grid points per atom       ...      678

CP-SCF GRIDX
------------

General Integration Accuracy     IntAcc      ... 3.067
Radial Grid Type                 RadialGrid  ... OptM3 with GC (2021)
Angular Grid (max. ang.)         AngularGrid ... 1 (Lebedev-50)
Angular grid pruning method      GridPruning ... 4 (adaptive)
Weight generation scheme         WeightScheme... Becke
Basis function cutoff            BFCut       ... 1.0000e-11
Integration weight cutoff        WCut        ... 1.0000e-14
Angular grids for H and He will be reduced by one unit
Partially contracted basis set               ... on
Rotationally invariant grid construction     ... off

Total number of grid points                  ...    16088
Total number of batches                      ...      280
Average number of points per batch           ...       57
Average number of grid points per atom       ...      315

Recalculating density on grid  ... done
Calculating the xc-kernel      ... done
Memory available               ... 904.7 MB
Memory needed per perturbation ...  51.0 MB
Perturbations treated per batch... 3
Number of batches              ... 1
     CP-SCF ITERATION   0:   1.9852e+01 (  77.4 sec   0/  3 done)
     CP-SCF ITERATION   1:   1.8108e+00 (  79.7 sec   0/  3 done)
     CP-SCF ITERATION   2:   7.7763e-01 (  79.8 sec   0/  3 done)
     CP-SCF ITERATION   3:   2.3907e-01 (  77.9 sec   0/  3 done)
     CP-SCF ITERATION   4:   1.0215e-01 (  80.2 sec   0/  3 done)
     CP-SCF ITERATION   5:   3.8373e-02 (  79.0 sec   0/  3 done)
     CP-SCF ITERATION   6:   1.3388e-02 (  75.4 sec   0/  3 done)
     CP-SCF ITERATION   7:   4.5011e-03 (  80.5 sec   0/  3 done)
     CP-SCF ITERATION   8:   1.6596e-03 (  76.3 sec   0/  3 done)
     CP-SCF ITERATION   9:   6.3893e-04 (  74.2 sec   0/  3 done)
     CP-SCF ITERATION  10:   2.1037e-04 (  75.8 sec   0/  3 done)
     CP-SCF ITERATION  11:   8.3704e-05 (  75.6 sec   3/  3 done)
                    *** THE CP-SCF HAS CONVERGED ***
done
Reading CP-SCF coefficients                    ... done
Doing the polarizability tensor                ... done
Cleaning up                                    ... done

-------------------------
THE POLARIZABILITY TENSOR
-------------------------

The raw cartesian tensor (atomic units):
  319.66256     -8.62946    -13.65538  
   -8.62946    279.71322     45.15448  
  -13.65538     45.15448    199.53344  
diagonalized tensor: 
  178.67005    293.30203    326.93713  

    0.06380      0.44535     -0.89308  
   -0.40262      0.83033      0.38530  
    0.91314      0.33499      0.23228  

Isotropic polarizability : 266.30307


Timings for individual modules:

Sum of individual times         ...     1545.667 sec (=  25.761 min)
GTO integral calculation        ...        2.312 sec (=   0.039 min)   0.1 %
SCF iterations                  ...      604.535 sec (=  10.076 min)  39.1 %
Solution of CP-SCF eqns.        ...      938.820 sec (=  15.647 min)  60.7 %
                             ****ORCA TERMINATED NORMALLY****
TOTAL RUN TIME: 0 days 0 hours 25 minutes 47 seconds 497 msec
