
                                 *****************
                                 * O   R   C   A *
                                 *****************

                                            #,                                       
                                            ###                                      
                                            ####                                     
                                            #####                                    
                                            ######                                   
                                           ########,                                 
                                     ,,################,,,,,                         
                               ,,#################################,,                 
                          ,,##########################################,,             
                       ,#########################################, ''#####,          
                    ,#############################################,,   '####,        
                  ,##################################################,,,,####,       
                ,###########''''           ''''###############################       
              ,#####''   ,,,,##########,,,,          '''####'''          '####       
            ,##' ,,,,###########################,,,                        '##       
           ' ,,###''''                  '''############,,,                           
         ,,##''                                '''############,,,,        ,,,,,,###''
      ,#''                                            '''#######################'''  
     '                                                          ''''####''''         
             ,#######,   #######,   ,#######,      ##                                
            ,#'     '#,  ##    ##  ,#'     '#,    #''#        ######   ,####,        
            ##       ##  ##   ,#'  ##            #'  '#       #        #'  '#        
            ##       ##  #######   ##           ,######,      #####,   #    #        
            '#,     ,#'  ##    ##  '#,     ,#' ,#      #,         ##   #,  ,#        
             '#######'   ##     ##  '#######'  #'      '#     #####' # '####'        



                  #######################################################
                  #                        -***-                        #
                  #          Department of theory and spectroscopy      #
                  #    Directorship and core code : Frank Neese         #
                  #        Max Planck Institute fuer Kohlenforschung    #
                  #                Kaiser Wilhelm Platz 1               #
                  #                 D-45470 Muelheim/Ruhr               #
                  #                      Germany                        #
                  #                                                     #
                  #                  All rights reserved                #
                  #                        -***-                        #
                  #######################################################


                         Program Version 5.0.3 -  RELEASE  -


 With contributions from (in alphabetic order):
   Daniel Aravena         : Magnetic Suceptibility
   Michael Atanasov       : Ab Initio Ligand Field Theory (pilot matlab implementation)
   Alexander A. Auer      : GIAO ZORA, VPT2 properties, NMR spectrum
   Ute Becker             : Parallelization
   Giovanni Bistoni       : ED, misc. LED, open-shell LED, HFLD
   Martin Brehm           : Molecular dynamics
   Dmytro Bykov           : SCF Hessian
   Vijay G. Chilkuri      : MRCI spin determinant printing, contributions to CSF-ICE
   Dipayan Datta          : RHF DLPNO-CCSD density
   Achintya Kumar Dutta   : EOM-CC, STEOM-CC
   Dmitry Ganyushin       : Spin-Orbit,Spin-Spin,Magnetic field MRCI
   Miquel Garcia          : C-PCM and meta-GGA Hessian, CC/C-PCM, Gaussian charge scheme
   Yang Guo               : DLPNO-NEVPT2, F12-NEVPT2, CIM, IAO-localization
   Andreas Hansen         : Spin unrestricted coupled pair/coupled cluster methods
   Benjamin Helmich-Paris : MC-RPA, TRAH-SCF, COSX integrals
   Lee Huntington         : MR-EOM, pCC
   Robert Izsak           : Overlap fitted RIJCOSX, COSX-SCS-MP3, EOM
   Marcus Kettner         : VPT2
   Christian Kollmar      : KDIIS, OOCD, Brueckner-CCSD(T), CCSD density, CASPT2, CASPT2-K
   Simone Kossmann        : Meta GGA functionals, TD-DFT gradient, OOMP2, MP2 Hessian
   Martin Krupicka        : Initial AUTO-CI
   Lucas Lang             : DCDCAS
   Marvin Lechner         : AUTO-CI (C++ implementation), FIC-MRCC
   Dagmar Lenk            : GEPOL surface, SMD
   Dimitrios Liakos       : Extrapolation schemes; Compound Job, initial MDCI parallelization
   Dimitrios Manganas     : Further ROCIS development; embedding schemes
   Dimitrios Pantazis     : SARC Basis sets
   Anastasios Papadopoulos: AUTO-CI, single reference methods and gradients
   Taras Petrenko         : DFT Hessian,TD-DFT gradient, ASA, ECA, R-Raman, ABS, FL, XAS/XES, NRVS
   Peter Pinski           : DLPNO-MP2, DLPNO-MP2 Gradient
   Christoph Reimann      : Effective Core Potentials
   Marius Retegan         : Local ZFS, SOC
   Christoph Riplinger    : Optimizer, TS searches, QM/MM, DLPNO-CCSD(T), (RO)-DLPNO pert. Triples
   Tobias Risthaus        : Range-separated hybrids, TD-DFT gradient, RPA, STAB
   Michael Roemelt        : Original ROCIS implementation
   Masaaki Saitow         : Open-shell DLPNO-CCSD energy and density
   Barbara Sandhoefer     : DKH picture change effects
   Avijit Sen             : IP-ROCIS
   Kantharuban Sivalingam : CASSCF convergence, NEVPT2, FIC-MRCI
   Bernardo de Souza      : ESD, SOC TD-DFT
   Georgi Stoychev        : AutoAux, RI-MP2 NMR, DLPNO-MP2 response
   Willem Van den Heuvel  : Paramagnetic NMR
   Boris Wezisla          : Elementary symmetry handling
   Frank Wennmohs         : Technical directorship


 We gratefully acknowledge several colleagues who have allowed us to
 interface, adapt or use parts of their codes:
   Stefan Grimme, W. Hujo, H. Kruse, P. Pracht,  : VdW corrections, initial TS optimization,
                  C. Bannwarth, S. Ehlert          DFT functionals, gCP, sTDA/sTD-DF
   Ed Valeev, F. Pavosevic, A. Kumar             : LibInt (2-el integral package), F12 methods
   Garnet Chan, S. Sharma, J. Yang, R. Olivares  : DMRG
   Ulf Ekstrom                                   : XCFun DFT Library
   Mihaly Kallay                                 : mrcc  (arbitrary order and MRCC methods)
   Jiri Pittner, Ondrej Demel                    : Mk-CCSD
   Frank Weinhold                                : gennbo (NPA and NBO analysis)
   Christopher J. Cramer and Donald G. Truhlar   : smd solvation model
   Lars Goerigk                                  : TD-DFT with DH, B97 family of functionals
   V. Asgeirsson, H. Jonsson                     : NEB implementation
   FAccTs GmbH                                   : IRC, NEB, NEB-TS, DLPNO-Multilevel, CI-OPT
                                                   MM, QMMM, 2- and 3-layer-ONIOM, Crystal-QMMM,
                                                   LR-CPCM, SF, NACMEs, symmetry and pop. for TD-DFT,
                                                   nearIR, NL-DFT gradient (VV10), updates on ESD,
                                                   ML-optimized integration grids
   S Lehtola, MJT Oliveira, MAL Marques          : LibXC Library
   Liviu Ungur et al                             : ANISO software


 Your calculation uses the libint2 library for the computation of 2-el integrals
 For citations please refer to: http://libint.valeyev.net

 Your ORCA version has been built with support for libXC version: 5.1.0
 For citations please refer to: https://tddft.org/programs/libxc/

 This ORCA versions uses:
   CBLAS   interface :  Fast vector & matrix operations
   LAPACKE interface :  Fast linear algebra routines
   SCALAPACK package :  Parallel linear algebra routines
   Shared memory     :  Shared parallel matrices
   BLAS/LAPACK       :  OpenBLAS 0.3.15  USE64BITINT DYNAMIC_ARCH NO_AFFINITY Zen SINGLE_THREADED
        Core in use  :  Zen
   Copyright (c) 2011-2014, The OpenBLAS Project




***************************************
The coordinates will be read from file: _86.xyz
***************************************


================================================================================

----- Orbital basis set information -----
Your calculation utilizes the basis: def2-SVP
   F. Weigend and R. Ahlrichs, Phys. Chem. Chem. Phys. 7, 3297 (2005).

----- AuxJ basis set information -----
Your calculation utilizes the auxiliary basis: def2/J
   F. Weigend, Phys. Chem. Chem. Phys. 8, 1057 (2006).

================================================================================
                                        WARNINGS
                       Please study these warnings very carefully!
================================================================================

WARNING: Old DensityContainer found on disk!
         Will remove this file - 
         If you want to keep old densities, please start your calculation with a different basename. 


INFO   : the flag for use of the SHARK integral package has been found!

================================================================================
                                       INPUT FILE
================================================================================
NAME = 86.inp
|  1> ! B3LYP DEF2-SVP TightSCF
|  2> %elprop
|  3> Polar 1
|  4> end
|  5> * xyzfile 0 1 _86.xyz
|  6> 
|  7>                          ****END OF INPUT****
================================================================================

                       ****************************
                       * Single Point Calculation *
                       ****************************

---------------------------------
CARTESIAN COORDINATES (ANGSTROEM)
---------------------------------
  C      5.137740    0.769593   -1.015034
  C      3.682587    0.500045   -0.860695
  C      2.959055   -0.048129   -1.897580
  C      1.618123   -0.293909   -1.748118
  C      0.946589   -0.000724   -0.553844
  C      1.657745    0.540586    0.472747
  C      3.026399    0.790490    0.317251
  Cl     3.882897    1.485685    1.668758
  O      1.023887    0.839815    1.663942
  C      0.974989   -0.136870    2.702038
  C     -0.495545   -0.276224   -0.448775
  C     -0.820545   -1.595203    0.140055
  C     -1.945148   -1.353471    1.090580
  C     -2.107817    0.117751    1.123061
  C     -1.286507    0.753768    0.232804
  C     -1.308977    2.148516    0.116444
  C     -2.143677    2.930053    0.880596
  C     -2.970710    2.247456    1.782105
  C     -2.971128    0.887963    1.917039
  O     -3.804273    0.241646    2.820781
  O     -2.240749    4.296915    0.843094
  C     -0.435484    2.814122   -0.844138
  O     -0.378511    4.029535   -1.030076
  C     -1.265477   -2.592513   -0.885434
  C     -0.618049   -3.732378   -1.008211
  C     -2.416275   -2.303429   -1.749519
  O      0.886632   -0.842802   -2.782122
  Cl     3.777800   -0.425455   -3.406853
  H      5.561177    0.185050   -1.853518
  H      5.701136    0.430384   -0.096598
  H      5.357379    1.858842   -1.086523
  H      1.620642    0.200694    3.568358
  H     -0.028186   -0.338634    3.069149
  H      1.482764   -1.076438    2.362059
  H     -0.914425   -0.306280   -1.510683
  H      0.010218   -2.036967    0.740847
  H     -1.725907   -1.740129    2.118282
  H     -2.894845   -1.820225    0.708880
  H     -3.639198    2.835325    2.398125
  H     -3.779033   -0.760538    2.894550
  H     -1.789082    4.977502    0.320723
  H      0.224580    2.161960   -1.449417
  H     -0.908379   -4.461109   -1.725977
  H      0.227868   -3.948133   -0.374784
  H     -2.183637   -2.719409   -2.764949
  H     -2.695713   -1.248862   -1.822858
  H     -3.282950   -2.904910   -1.369768
  H      1.290022   -1.080956   -3.666798

----------------------------
CARTESIAN COORDINATES (A.U.)
----------------------------
  NO LB      ZA    FRAG     MASS         X           Y           Z
   0 C     6.0000    0    12.011    9.708922    1.454320   -1.918136
   1 C     6.0000    0    12.011    6.959081    0.944948   -1.626478
   2 C     6.0000    0    12.011    5.591804   -0.090951   -3.585907
   3 C     6.0000    0    12.011    3.057809   -0.555408   -3.303464
   4 C     6.0000    0    12.011    1.788794   -0.001368   -1.046613
   5 C     6.0000    0    12.011    3.132684    1.021559    0.893362
   6 C     6.0000    0    12.011    5.719065    1.493810    0.599518
   7 Cl   17.0000    0    35.453    7.337612    2.807538    3.153496
   8 O     8.0000    0    15.999    1.934866    1.587020    3.144395
   9 C     6.0000    0    12.011    1.842462   -0.258647    5.106112
  10 C     6.0000    0    12.011   -0.936444   -0.521988   -0.848062
  11 C     6.0000    0    12.011   -1.550605   -3.014497    0.264666
  12 C     6.0000    0    12.011   -3.675797   -2.557690    2.060898
  13 C     6.0000    0    12.011   -3.983197    0.222517    2.122278
  14 C     6.0000    0    12.011   -2.431146    1.424415    0.439936
  15 C     6.0000    0    12.011   -2.473608    4.060107    0.220047
  16 C     6.0000    0    12.011   -4.050962    5.536998    1.664085
  17 C     6.0000    0    12.011   -5.613828    4.247076    3.367690
  18 C     6.0000    0    12.011   -5.614618    1.678007    3.622679
  19 O     8.0000    0    15.999   -7.189034    0.456645    5.330504
  20 O     8.0000    0    15.999   -4.234402    8.119993    1.593217
  21 C     6.0000    0    12.011   -0.822945    5.317920   -1.595190
  22 O     8.0000    0    15.999   -0.715282    7.614718   -1.946562
  23 C     6.0000    0    12.011   -2.391405   -4.899140   -1.673228
  24 C     6.0000    0    12.011   -1.167943   -7.053172   -1.905243
  25 C     6.0000    0    12.011   -4.566098   -4.352850   -3.306112
  26 O     8.0000    0    15.999    1.675492   -1.592665   -5.257449
  27 Cl   17.0000    0    35.453    7.139007   -0.803993   -6.438019
  28 H     1.0000    0     1.008   10.509102    0.349694   -3.502641
  29 H     1.0000    0     1.008   10.773586    0.813308   -0.182544
  30 H     1.0000    0     1.008   10.123979    3.512702   -2.053231
  31 H     1.0000    0     1.008    3.062570    0.379257    6.743219
  32 H     1.0000    0     1.008   -0.053264   -0.639926    5.799851
  33 H     1.0000    0     1.008    2.802018   -2.034173    4.463645
  34 H     1.0000    0     1.008   -1.728013   -0.578785   -2.854777
  35 H     1.0000    0     1.008    0.019309   -3.849310    1.399998
  36 H     1.0000    0     1.008   -3.261492   -3.288367    4.002973
  37 H     1.0000    0     1.008   -5.470464   -3.439727    1.339589
  38 H     1.0000    0     1.008   -6.877088    5.357988    4.531799
  39 H     1.0000    0     1.008   -7.141337   -1.437209    5.469907
  40 H     1.0000    0     1.008   -3.380875    9.406116    0.606079
  41 H     1.0000    0     1.008    0.424395    4.085512   -2.739001
  42 H     1.0000    0     1.008   -1.716588   -8.430274   -3.261624
  43 H     1.0000    0     1.008    0.430608   -7.460890   -0.708239
  44 H     1.0000    0     1.008   -4.126476   -5.138938   -5.224996
  45 H     1.0000    0     1.008   -5.094159   -2.360007   -3.444702
  46 H     1.0000    0     1.008   -6.203876   -5.489484   -2.588486
  47 H     1.0000    0     1.008    2.437788   -2.042711   -6.929244

--------------------------------
INTERNAL COORDINATES (ANGSTROEM)
--------------------------------
 C      0   0   0     0.000000000000     0.00000000     0.00000000
 C      1   0   0     1.487933770244     0.00000000     0.00000000
 C      2   1   0     1.378087004701   120.49574032     0.00000000
 C      3   2   1     1.371439144282   120.17452697   179.99638357
 C      4   3   2     1.401144440969   121.60132656     0.00000000
 C      5   4   3     1.361120293625   118.40321458     0.00000000
 C      2   1   3     1.379310613417   121.04377275   179.99148950
 Cl     7   2   1     1.744550395683   120.79383404     0.00000000
 O      6   5   4     1.382121371888   119.77016300   180.05567306
 C      9   6   5     1.426165456336   119.65655275    90.99114137
 C      5   4   3     1.471968144600   119.42204257   179.60931128
 C     11   5   4     1.480557790612   114.21674404    94.06296836
 C     12  11   5     1.492201073267   105.92963311   136.95845408
 C     13  12  11     1.480543951460   104.93698150   353.51221074
 C     14  13  12     1.368073560317   112.44127070     4.69119404
 C     15  14  13     1.399773743861   120.50994097   179.54931649
 C     16  15  14     1.375300858530   121.99063915     0.05763595
 C     17  16  15     1.400942798468   116.03712945   359.97273913
 C     18  17  16     1.366172967134   123.27079310     0.00000000
 O     19  18  17     1.388742545643   121.84207106   180.01162011
 O     17  16  15     1.370817675780   126.47015724   179.97010796
 C     16  15  14     1.459019926872   119.97893531   180.47294617
 O     22  16  15     1.230872707936   125.28454040   179.75425735
 C     12  11   5     1.498071897422   112.70735046   255.65952191
 C     24  12  11     1.316635646311   119.61288025   122.88801263
 C     24  12  11     1.467838030263   120.31239790   302.87758938
 O      4   3   2     1.380408229672   120.51398587   180.00007169
 Cl     3   2   1     1.758016858233   119.13112560     0.00000000
 H      1   2   3     1.106365595124   110.92803285   340.94431681
 H      1   2   3     1.129602799480   110.42811259   224.38784309
 H      1   2   3     1.113469959830   112.13471200   108.49347537
 H     10   9   6     1.131957416560   109.46892319   111.30374943
 H     10   9   6     1.087124316094   113.86242653   233.39491136
 H     10   9   6     1.120807386525   109.74073356   359.03364186
 H     11   5   4     1.141933631171   107.33332967   337.59062271
 H     12  11   5     1.116366257609   113.77901574    20.44656440
 H     13  12  11     1.119706401629   112.40471191   233.79849544
 H     13  12  11     1.124934921818   110.66476277   111.04884614
 H     18  17  16     1.082564920781   117.78309907   179.98898291
 H     20  19  18     1.005212262568   119.78117229   180.00235595
 H     21  17  16     0.969573723395   132.97431938   359.97682146
 H     22  16  15     1.107863902373   116.60565622   359.79125338
 H     25  24  12     1.063263095389   121.46884686   180.00066754
 H     25  24  12     1.078589613914   120.26949830     0.00000000
 H     26  24  12     1.121720947626   107.29330134   142.61355974
 H     26  24  12     1.093423871266   115.45449393    18.96371528
 H     26  24  12     1.121211742262   107.51691791   255.72835749
 H     27   4   3     1.001045675677   122.89095845     0.00000000

---------------------------
INTERNAL COORDINATES (A.U.)
---------------------------
 C      0   0   0     0.000000000000     0.00000000     0.00000000
 C      1   0   0     2.811787331175     0.00000000     0.00000000
 C      2   1   0     2.604207027600   120.49574032     0.00000000
 C      3   2   1     2.591644392032   120.17452697   179.99638357
 C      4   3   2     2.647779267497   121.60132656     0.00000000
 C      5   4   3     2.572144590273   118.40321458     0.00000000
 C      2   1   3     2.606519312969   121.04377275   179.99148950
 Cl     7   2   1     3.296722474665   120.79383404     0.00000000
 O      6   5   4     2.611830876708   119.77016300   180.05567306
 C      9   6   5     2.695062134133   119.65655275    90.99114137
 C      5   4   3     2.781616671150   119.42204257   179.60931128
 C     11   5   4     2.797848749700   114.21674404    94.06296836
 C     12  11   5     2.819851365217   105.92963311   136.95845408
 C     13  12  11     2.797822597494   104.93698150   353.51221074
 C     14  13  12     2.585284360057   112.44127070     4.69119404
 C     15  14  13     2.645189025352   120.50994097   179.54931649
 C     16  15  14     2.598941974368   121.99063915     0.05763595
 C     17  16  15     2.647398218394   116.03712945   359.97273913
 C     18  17  16     2.581692759451   123.27079310     0.00000000
 O     19  18  17     2.624343081789   121.84207106   180.01162011
 O     17  16  15     2.590469986763   126.47015724   179.97010796
 C     16  15  14     2.757148085722   119.97893531   180.47294617
 O     22  16  15     2.326012323717   125.28454040   179.75425735
 C     12  11   5     2.830945615051   112.70735046   255.65952191
 C     24  12  11     2.488080789687   119.61288025   122.88801263
 C     24  12  11     2.773811886151   120.31239790   302.87758938
 O      4   3   2     2.608593507091   120.51398587   180.00007169
 Cl     3   2   1     3.322170400876   119.13112560     0.00000000
 H      1   2   3     2.090727978777   110.92803285   340.94431681
 H      1   2   3     2.134639931128   110.42811259   224.38784309
 H      1   2   3     2.104153282426   112.13471200   108.49347537
 H     10   9   6     2.139089512559   109.46892319   111.30374943
 H     10   9   6     2.054367230943   113.86242653   233.39491136
 H     10   9   6     2.118019009409   109.74073356   359.03364186
 H     11   5   4     2.157941826028   107.33332967   337.59062271
 H     12  11   5     2.109626492033   113.77901574    20.44656440
 H     13  12  11     2.115938449477   112.40471191   233.79849544
 H     13  12  11     2.125818920720   110.66476277   111.04884614
 H     18  17  16     2.045751222466   117.78309907   179.98898291
 H     20  19  18     1.899575882713   119.78117229   180.00235595
 H     21  17  16     1.832228803864   132.97431938   359.97682146
 H     22  16  15     2.093559369142   116.60565622   359.79125338
 H     25  24  12     2.009276058591   121.46884686   180.00066754
 H     25  24  12     2.038238981189   120.26949830     0.00000000
 H     26  24  12     2.119745389697   107.29330134   142.61355974
 H     26  24  12     2.066271664984   115.45449393    18.96371528
 H     26  24  12     2.118783131013   107.51691791   255.72835749
 H     27   4   3     1.891702174576   122.89095845     0.00000000

---------------------
BASIS SET INFORMATION
---------------------
There are 4 groups of distinct atoms

 Group   1 Type C   : 7s4p1d contracted to 3s2p1d pattern {511/31/1}
 Group   2 Type Cl  : 10s7p1d contracted to 4s3p1d pattern {5311/511/1}
 Group   3 Type O   : 7s4p1d contracted to 3s2p1d pattern {511/31/1}
 Group   4 Type H   : 4s1p contracted to 2s1p pattern {31/1}

Atom   0C    basis set group =>   1
Atom   1C    basis set group =>   1
Atom   2C    basis set group =>   1
Atom   3C    basis set group =>   1
Atom   4C    basis set group =>   1
Atom   5C    basis set group =>   1
Atom   6C    basis set group =>   1
Atom   7Cl   basis set group =>   2
Atom   8O    basis set group =>   3
Atom   9C    basis set group =>   1
Atom  10C    basis set group =>   1
Atom  11C    basis set group =>   1
Atom  12C    basis set group =>   1
Atom  13C    basis set group =>   1
Atom  14C    basis set group =>   1
Atom  15C    basis set group =>   1
Atom  16C    basis set group =>   1
Atom  17C    basis set group =>   1
Atom  18C    basis set group =>   1
Atom  19O    basis set group =>   3
Atom  20O    basis set group =>   3
Atom  21C    basis set group =>   1
Atom  22O    basis set group =>   3
Atom  23C    basis set group =>   1
Atom  24C    basis set group =>   1
Atom  25C    basis set group =>   1
Atom  26O    basis set group =>   3
Atom  27Cl   basis set group =>   2
Atom  28H    basis set group =>   4
Atom  29H    basis set group =>   4
Atom  30H    basis set group =>   4
Atom  31H    basis set group =>   4
Atom  32H    basis set group =>   4
Atom  33H    basis set group =>   4
Atom  34H    basis set group =>   4
Atom  35H    basis set group =>   4
Atom  36H    basis set group =>   4
Atom  37H    basis set group =>   4
Atom  38H    basis set group =>   4
Atom  39H    basis set group =>   4
Atom  40H    basis set group =>   4
Atom  41H    basis set group =>   4
Atom  42H    basis set group =>   4
Atom  43H    basis set group =>   4
Atom  44H    basis set group =>   4
Atom  45H    basis set group =>   4
Atom  46H    basis set group =>   4
Atom  47H    basis set group =>   4
---------------------------------
AUXILIARY/J BASIS SET INFORMATION
---------------------------------
There are 4 groups of distinct atoms

 Group   1 Type C   : 12s5p4d2f1g contracted to 6s4p3d1f1g pattern {711111/2111/211/2/1}
 Group   2 Type Cl  : 14s5p5d2f1g contracted to 8s4p3d1f1g pattern {71111111/2111/311/2/1}
 Group   3 Type O   : 12s5p4d2f1g contracted to 6s4p3d1f1g pattern {711111/2111/211/2/1}
 Group   4 Type H   : 5s2p1d contracted to 3s1p1d pattern {311/2/1}

Atom   0C    basis set group =>   1
Atom   1C    basis set group =>   1
Atom   2C    basis set group =>   1
Atom   3C    basis set group =>   1
Atom   4C    basis set group =>   1
Atom   5C    basis set group =>   1
Atom   6C    basis set group =>   1
Atom   7Cl   basis set group =>   2
Atom   8O    basis set group =>   3
Atom   9C    basis set group =>   1
Atom  10C    basis set group =>   1
Atom  11C    basis set group =>   1
Atom  12C    basis set group =>   1
Atom  13C    basis set group =>   1
Atom  14C    basis set group =>   1
Atom  15C    basis set group =>   1
Atom  16C    basis set group =>   1
Atom  17C    basis set group =>   1
Atom  18C    basis set group =>   1
Atom  19O    basis set group =>   3
Atom  20O    basis set group =>   3
Atom  21C    basis set group =>   1
Atom  22O    basis set group =>   3
Atom  23C    basis set group =>   1
Atom  24C    basis set group =>   1
Atom  25C    basis set group =>   1
Atom  26O    basis set group =>   3
Atom  27Cl   basis set group =>   2
Atom  28H    basis set group =>   4
Atom  29H    basis set group =>   4
Atom  30H    basis set group =>   4
Atom  31H    basis set group =>   4
Atom  32H    basis set group =>   4
Atom  33H    basis set group =>   4
Atom  34H    basis set group =>   4
Atom  35H    basis set group =>   4
Atom  36H    basis set group =>   4
Atom  37H    basis set group =>   4
Atom  38H    basis set group =>   4
Atom  39H    basis set group =>   4
Atom  40H    basis set group =>   4
Atom  41H    basis set group =>   4
Atom  42H    basis set group =>   4
Atom  43H    basis set group =>   4
Atom  44H    basis set group =>   4
Atom  45H    basis set group =>   4
Atom  46H    basis set group =>   4
Atom  47H    basis set group =>   4

Checking for AutoStart:
The File: 86.gbw exists
Trying to determine its content:
     ... Fine, the file contains calculation information
     ... Fine, the calculation information was read
     ... Fine, the file contains a basis set
     ... Fine, the basis set was read
     ... Fine, the file contains a geometry
     ... Fine, the geometry was read
     ... Fine, the file contains a set of orbitals
     ... Fine, the orbitals can be read
     => possible old guess file was deleted
     => GBW file was renamed to GES file
     => GES file is set as startup file
     => Guess is set to MORead
     ... now leaving AutoStart

------------------------------------------------------------------------------
                           ORCA GTO INTEGRAL CALCULATION
                           -- RI-GTO INTEGRALS CHOSEN --
------------------------------------------------------------------------------
------------------------------------------------------------------------------
                   ___                                                        
                  /   \      - P O W E R E D   B Y -                         
                 /     \                                                     
                 |  |  |   _    _      __       _____    __    __             
                 |  |  |  | |  | |    /  \     |  _  \  |  |  /  |          
                  \  \/   | |  | |   /    \    | | | |  |  | /  /          
                 / \  \   | |__| |  /  /\  \   | |_| |  |  |/  /          
                |  |  |   |  __  | /  /__\  \  |    /   |      \           
                |  |  |   | |  | | |   __   |  |    \   |  |\   \          
                \     /   | |  | | |  |  |  |  | |\  \  |  | \   \       
                 \___/    |_|  |_| |__|  |__|  |_| \__\ |__|  \__/        
                                                                              
                      - O R C A' S   B I G   F R I E N D -                    
                                      &                                       
                       - I N T E G R A L  F E E D E R -                       
                                                                              
 v1 FN, 2020, v2 2021                                                         
------------------------------------------------------------------------------


Reading SHARK input file 86.SHARKINP.tmp ... ok
----------------------
SHARK INTEGRAL PACKAGE
----------------------

Number of atoms                             ...     48
Number of basis functions                   ...    500
Number of shells                            ...    232
Maximum angular momentum                    ...      2
Integral batch strategy                     ... SHARK/LIBINT Hybrid
RI-J (if used) integral strategy            ... SPLIT-RIJ (Revised 2003 algorithm where possible)
Printlevel                                  ...      1
Contraction scheme used                     ... SEGMENTED contraction
Coulomb Range Separation                    ... NOT USED
Exchange Range Separation                   ... NOT USED
Finite Nucleus Model                        ... NOT USED
Auxiliary Coulomb fitting basis             ... AVAILABLE
   # of basis functions in Aux-J            ...   1596
   # of shells in Aux-J                     ...    524
   Maximum angular momentum in Aux-J        ...      4
Auxiliary J/K fitting basis                 ... NOT available
Auxiliary Correlation fitting basis         ... NOT available
Auxiliary 'external' fitting basis          ... NOT available
Integral threshold                          ...     2.500000e-11
Primitive cut-off                           ...     2.500000e-12
Primitive pair pre-selection threshold      ...     2.500000e-12

Calculating pre-screening integrals         ... done (  0.2 sec) Dimension = 232
Organizing shell pair data                  ... done (  0.5 sec)
Shell pair information
Total number of shell pairs                 ...     27028
Shell pairs after pre-screening             ...     19747
Total number of primitive shell pairs       ...    101020
Primitive shell pairs kept                  ...     45536
          la=0 lb=0:   5997 shell pairs
          la=1 lb=0:   7346 shell pairs
          la=1 lb=1:   2318 shell pairs
          la=2 lb=0:   2367 shell pairs
          la=2 lb=1:   1479 shell pairs
          la=2 lb=2:    240 shell pairs

Calculating one electron integrals          ... done (  0.5 sec)
Calculating RI/J V-Matrix + Cholesky decomp.... done (  0.5 sec)
Calculating Nuclear repulsion               ... done (  0.0 sec) ENN=   3156.725362136237 Eh

SHARK setup successfully completed in   2.6 seconds

Maximum memory used throughout the entire GTOINT-calculation: 122.7 MB
-------------------------------------------------------------------------------
                                 ORCA SCF
-------------------------------------------------------------------------------

------------
SCF SETTINGS
------------
Hamiltonian:
 Density Functional     Method          .... DFT(GTOs)
 Exchange Functional    Exchange        .... B88
   X-Alpha parameter    XAlpha          ....  0.666667
   Becke's b parameter  XBeta           ....  0.004200
 Correlation Functional Correlation     .... LYP
 LDA part of GGA corr.  LDAOpt          .... VWN-5
 Gradients option       PostSCFGGA      .... off
 Hybrid DFT is turned on
   Fraction HF Exchange ScalHFX         ....  0.200000
   Scaling of DF-GGA-X  ScalDFX         ....  0.720000
   Scaling of DF-GGA-C  ScalDFC         ....  0.810000
   Scaling of DF-LDA-C  ScalLDAC        ....  1.000000
   Perturbative correction              ....  0.000000
   Density functional embedding theory  .... OFF
   NL short-range parameter             ....  4.800000
 RI-approximation to the Coulomb term is turned on
   Number of AuxJ basis functions       .... 1596
   RIJ-COSX (HFX calculated with COS-X)).... on


General Settings:
 Integral files         IntName         .... 86
 Hartree-Fock type      HFTyp           .... RHF
 Total Charge           Charge          ....    0
 Multiplicity           Mult            ....    1
 Number of Electrons    NEL             ....  220
 Basis Dimension        Dim             ....  500
 Nuclear Repulsion      ENuc            ....   3156.7253621362 Eh

Convergence Acceleration:
 DIIS                   CNVDIIS         .... on
   Start iteration      DIISMaxIt       ....    12
   Startup error        DIISStart       ....  0.200000
   # of expansion vecs  DIISMaxEq       ....     5
   Bias factor          DIISBfac        ....   1.050
   Max. coefficient     DIISMaxC        ....  10.000
 Trust-Rad. Augm. Hess. CNVTRAH         .... auto
   Auto Start mean grad. ratio tolernc. ....  1.125000
   Auto Start start iteration           ....     1
   Auto Start num. interpolation iter.  ....    10
   Max. Number of Micro iterations      ....    16
   Max. Number of Macro iterations      .... Maxiter - #DIIS iter
   Number of Davidson start vectors     ....     2
   Converg. threshold I  (grad. norm)   ....   1.000e-05
   Converg. threshold II (energy diff.) ....   1.000e-08
   Grad. Scal. Fac. for Micro threshold ....   0.100
   Minimum threshold for Micro iter.    ....   0.010
   NR start threshold (gradient norm)   ....   0.001
   Initial trust radius                 ....   0.400
   Minimum AH scaling param. (alpha)    ....   1.000
   Maximum AH scaling param. (alpha)    .... 1000.000
   Orbital update algorithm             .... Taylor
   White noise on init. David. guess    .... on
   Maximum white noise                  ....   0.010
   Quad. conv. algorithm                .... NR
 SOSCF                  CNVSOSCF        .... on
   Start iteration      SOSCFMaxIt      ....   150
   Startup grad/error   SOSCFStart      ....  0.003300
 Level Shifting         CNVShift        .... on
   Level shift para.    LevelShift      ....    0.2500
   Turn off err/grad.   ShiftErr        ....    0.0010
 Zerner damping         CNVZerner       .... off
 Static damping         CNVDamp         .... on
   Fraction old density DampFac         ....    0.7000
   Max. Damping (<1)    DampMax         ....    0.9800
   Min. Damping (>=0)   DampMin         ....    0.0000
   Turn off err/grad.   DampErr         ....    0.1000
 Fernandez-Rico         CNVRico         .... off

SCF Procedure:
 Maximum # iterations   MaxIter         ....   125
 SCF integral mode      SCFMode         .... Direct
   Integral package                     .... SHARK and LIBINT hybrid scheme
 Reset frequency        DirectResetFreq ....    20
 Integral Threshold     Thresh          ....  2.500e-11 Eh
 Primitive CutOff       TCut            ....  2.500e-12 Eh

Convergence Tolerance:
 Convergence Check Mode ConvCheckMode   .... Total+1el-Energy
 Convergence forced     ConvForced      .... 0
 Energy Change          TolE            ....  1.000e-08 Eh
 1-El. energy change                    ....  1.000e-05 Eh
 Orbital Gradient       TolG            ....  1.000e-05
 Orbital Rotation angle TolX            ....  1.000e-05
 DIIS Error             TolErr          ....  5.000e-07


Diagonalization of the overlap matrix:
Smallest eigenvalue                        ... 9.457e-05
Time for diagonalization                   ...    0.113 sec
Threshold for overlap eigenvalues          ... 1.000e-08
Number of eigenvalues below threshold      ... 0
Time for construction of square roots      ...    0.060 sec
Total time needed                          ...    0.174 sec

---------------------
INITIAL GUESS: MOREAD
---------------------
Guess MOs are being read from file: 86.ges
Input Geometry matches current geometry (good)
Input basis set matches current basis set (good)
MOs were renormalized
MOs were reorthogonalized (Cholesky)
                      ------------------
                      INITIAL GUESS DONE (   0.1 sec)
                      ------------------
-------------------
DFT GRID GENERATION
-------------------

General Integration Accuracy     IntAcc      ... 4.388
Radial Grid Type                 RadialGrid  ... OptM3 with GC (2021)
Angular Grid (max. ang.)         AngularGrid ... 4 (Lebedev-302)
Angular grid pruning method      GridPruning ... 4 (adaptive)
Weight generation scheme         WeightScheme... Becke
Basis function cutoff            BFCut       ... 1.0000e-11
Integration weight cutoff        WCut        ... 1.0000e-14
Angular grids for H and He will be reduced by one unit
Partially contracted basis set               ... off
Rotationally invariant grid construction     ... off

Total number of grid points                  ...   232055
Total number of batches                      ...     3651
Average number of points per batch           ...       63
Average number of grid points per atom       ...     4834
Time for grid setup =   13.099 sec

--------------------
COSX GRID GENERATION
--------------------

GRIDX 1
-------
General Integration Accuracy     IntAcc      ... 3.816
Radial Grid Type                 RadialGrid  ... OptM3 with GC (2021)
Angular Grid (max. ang.)         AngularGrid ... 1 (Lebedev-50)
Angular grid pruning method      GridPruning ... 4 (adaptive)
Weight generation scheme         WeightScheme... Becke
Basis function cutoff            BFCut       ... 1.0000e-11
Integration weight cutoff        WCut        ... 1.0000e-14
Angular grids for H and He will be reduced by one unit
Partially contracted basis set               ... on
Rotationally invariant grid construction     ... off

Total number of grid points                  ...    29233
Total number of batches                      ...      484
Average number of points per batch           ...       60
Average number of grid points per atom       ...      609
UseSFitting                                  ... on

GRIDX 2
-------
General Integration Accuracy     IntAcc      ... 4.020
Radial Grid Type                 RadialGrid  ... OptM3 with GC (2021)
Angular Grid (max. ang.)         AngularGrid ... 2 (Lebedev-110)
Angular grid pruning method      GridPruning ... 4 (adaptive)
Weight generation scheme         WeightScheme... Becke
Basis function cutoff            BFCut       ... 1.0000e-11
Integration weight cutoff        WCut        ... 1.0000e-14
Angular grids for H and He will be reduced by one unit
Partially contracted basis set               ... on
Rotationally invariant grid construction     ... off

Total number of grid points                  ...    63289
Total number of batches                      ...     1009
Average number of points per batch           ...       62
Average number of grid points per atom       ...     1319
UseSFitting                                  ... on

GRIDX 3
-------
General Integration Accuracy     IntAcc      ... 4.338
Radial Grid Type                 RadialGrid  ... OptM3 with GC (2021)
Angular Grid (max. ang.)         AngularGrid ... 3 (Lebedev-194)
Angular grid pruning method      GridPruning ... 4 (adaptive)
Weight generation scheme         WeightScheme... Becke
Basis function cutoff            BFCut       ... 1.0000e-11
Integration weight cutoff        WCut        ... 1.0000e-14
Angular grids for H and He will be reduced by one unit
Partially contracted basis set               ... on
Rotationally invariant grid construction     ... off

Total number of grid points                  ...   139238
Total number of batches                      ...     2201
Average number of points per batch           ...       63
Average number of grid points per atom       ...     2901
UseSFitting                                  ... on

Time for X-Grid setup             =   21.953 sec

--------------
SCF ITERATIONS
--------------
ITER       Energy         Delta-E        Max-DP      RMS-DP      [F,P]     Damp
               ***  Starting incremental Fock matrix formation  ***
                      *** Initiating the SOSCF procedure ***
                      *** Re-Reading the Fockian *** 
                      *** Removing any level shift *** 
ITER      Energy       Delta-E        Grad      Rot      Max-DP    RMS-DP
  0  -2106.74525133 -2106.7452513284  0.000000  0.000000  0.000016  0.000000
               *** Restarting incremental Fock matrix formation ***
                  ***Gradient check signals convergence***
              ***Rediagonalizing the Fockian in SOSCF/NRSCF***

               *****************************************************
               *                     SUCCESS                       *
               *           SCF CONVERGED AFTER   1 CYCLES          *
               *****************************************************

