
                                 *****************
                                 * O   R   C   A *
                                 *****************

                                            #,                                       
                                            ###                                      
                                            ####                                     
                                            #####                                    
                                            ######                                   
                                           ########,                                 
                                     ,,################,,,,,                         
                               ,,#################################,,                 
                          ,,##########################################,,             
                       ,#########################################, ''#####,          
                    ,#############################################,,   '####,        
                  ,##################################################,,,,####,       
                ,###########''''           ''''###############################       
              ,#####''   ,,,,##########,,,,          '''####'''          '####       
            ,##' ,,,,###########################,,,                        '##       
           ' ,,###''''                  '''############,,,                           
         ,,##''                                '''############,,,,        ,,,,,,###''
      ,#''                                            '''#######################'''  
     '                                                          ''''####''''         
             ,#######,   #######,   ,#######,      ##                                
            ,#'     '#,  ##    ##  ,#'     '#,    #''#        ######   ,####,        
            ##       ##  ##   ,#'  ##            #'  '#       #        #'  '#        
            ##       ##  #######   ##           ,######,      #####,   #    #        
            '#,     ,#'  ##    ##  '#,     ,#' ,#      #,         ##   #,  ,#        
             '#######'   ##     ##  '#######'  #'      '#     #####' # '####'        



                  #######################################################
                  #                        -***-                        #
                  #          Department of theory and spectroscopy      #
                  #    Directorship and core code : Frank Neese         #
                  #        Max Planck Institute fuer Kohlenforschung    #
                  #                Kaiser Wilhelm Platz 1               #
                  #                 D-45470 Muelheim/Ruhr               #
                  #                      Germany                        #
                  #                                                     #
                  #                  All rights reserved                #
                  #                        -***-                        #
                  #######################################################


                         Program Version 5.0.3 -  RELEASE  -


 With contributions from (in alphabetic order):
   Daniel Aravena         : Magnetic Suceptibility
   Michael Atanasov       : Ab Initio Ligand Field Theory (pilot matlab implementation)
   Alexander A. Auer      : GIAO ZORA, VPT2 properties, NMR spectrum
   Ute Becker             : Parallelization
   Giovanni Bistoni       : ED, misc. LED, open-shell LED, HFLD
   Martin Brehm           : Molecular dynamics
   Dmytro Bykov           : SCF Hessian
   Vijay G. Chilkuri      : MRCI spin determinant printing, contributions to CSF-ICE
   Dipayan Datta          : RHF DLPNO-CCSD density
   Achintya Kumar Dutta   : EOM-CC, STEOM-CC
   Dmitry Ganyushin       : Spin-Orbit,Spin-Spin,Magnetic field MRCI
   Miquel Garcia          : C-PCM and meta-GGA Hessian, CC/C-PCM, Gaussian charge scheme
   Yang Guo               : DLPNO-NEVPT2, F12-NEVPT2, CIM, IAO-localization
   Andreas Hansen         : Spin unrestricted coupled pair/coupled cluster methods
   Benjamin Helmich-Paris : MC-RPA, TRAH-SCF, COSX integrals
   Lee Huntington         : MR-EOM, pCC
   Robert Izsak           : Overlap fitted RIJCOSX, COSX-SCS-MP3, EOM
   Marcus Kettner         : VPT2
   Christian Kollmar      : KDIIS, OOCD, Brueckner-CCSD(T), CCSD density, CASPT2, CASPT2-K
   Simone Kossmann        : Meta GGA functionals, TD-DFT gradient, OOMP2, MP2 Hessian
   Martin Krupicka        : Initial AUTO-CI
   Lucas Lang             : DCDCAS
   Marvin Lechner         : AUTO-CI (C++ implementation), FIC-MRCC
   Dagmar Lenk            : GEPOL surface, SMD
   Dimitrios Liakos       : Extrapolation schemes; Compound Job, initial MDCI parallelization
   Dimitrios Manganas     : Further ROCIS development; embedding schemes
   Dimitrios Pantazis     : SARC Basis sets
   Anastasios Papadopoulos: AUTO-CI, single reference methods and gradients
   Taras Petrenko         : DFT Hessian,TD-DFT gradient, ASA, ECA, R-Raman, ABS, FL, XAS/XES, NRVS
   Peter Pinski           : DLPNO-MP2, DLPNO-MP2 Gradient
   Christoph Reimann      : Effective Core Potentials
   Marius Retegan         : Local ZFS, SOC
   Christoph Riplinger    : Optimizer, TS searches, QM/MM, DLPNO-CCSD(T), (RO)-DLPNO pert. Triples
   Tobias Risthaus        : Range-separated hybrids, TD-DFT gradient, RPA, STAB
   Michael Roemelt        : Original ROCIS implementation
   Masaaki Saitow         : Open-shell DLPNO-CCSD energy and density
   Barbara Sandhoefer     : DKH picture change effects
   Avijit Sen             : IP-ROCIS
   Kantharuban Sivalingam : CASSCF convergence, NEVPT2, FIC-MRCI
   Bernardo de Souza      : ESD, SOC TD-DFT
   Georgi Stoychev        : AutoAux, RI-MP2 NMR, DLPNO-MP2 response
   Willem Van den Heuvel  : Paramagnetic NMR
   Boris Wezisla          : Elementary symmetry handling
   Frank Wennmohs         : Technical directorship


 We gratefully acknowledge several colleagues who have allowed us to
 interface, adapt or use parts of their codes:
   Stefan Grimme, W. Hujo, H. Kruse, P. Pracht,  : VdW corrections, initial TS optimization,
                  C. Bannwarth, S. Ehlert          DFT functionals, gCP, sTDA/sTD-DF
   Ed Valeev, F. Pavosevic, A. Kumar             : LibInt (2-el integral package), F12 methods
   Garnet Chan, S. Sharma, J. Yang, R. Olivares  : DMRG
   Ulf Ekstrom                                   : XCFun DFT Library
   Mihaly Kallay                                 : mrcc  (arbitrary order and MRCC methods)
   Jiri Pittner, Ondrej Demel                    : Mk-CCSD
   Frank Weinhold                                : gennbo (NPA and NBO analysis)
   Christopher J. Cramer and Donald G. Truhlar   : smd solvation model
   Lars Goerigk                                  : TD-DFT with DH, B97 family of functionals
   V. Asgeirsson, H. Jonsson                     : NEB implementation
   FAccTs GmbH                                   : IRC, NEB, NEB-TS, DLPNO-Multilevel, CI-OPT
                                                   MM, QMMM, 2- and 3-layer-ONIOM, Crystal-QMMM,
                                                   LR-CPCM, SF, NACMEs, symmetry and pop. for TD-DFT,
                                                   nearIR, NL-DFT gradient (VV10), updates on ESD,
                                                   ML-optimized integration grids
   S Lehtola, MJT Oliveira, MAL Marques          : LibXC Library
   Liviu Ungur et al                             : ANISO software


 Your calculation uses the libint2 library for the computation of 2-el integrals
 For citations please refer to: http://libint.valeyev.net

 Your ORCA version has been built with support for libXC version: 5.1.0
 For citations please refer to: https://tddft.org/programs/libxc/

 This ORCA versions uses:
   CBLAS   interface :  Fast vector & matrix operations
   LAPACKE interface :  Fast linear algebra routines
   SCALAPACK package :  Parallel linear algebra routines
   Shared memory     :  Shared parallel matrices
   BLAS/LAPACK       :  OpenBLAS 0.3.15  USE64BITINT DYNAMIC_ARCH NO_AFFINITY Zen SINGLE_THREADED
        Core in use  :  Zen
   Copyright (c) 2011-2014, The OpenBLAS Project




***************************************
The coordinates will be read from file: _9.xyz
***************************************


================================================================================

----- Orbital basis set information -----
Your calculation utilizes the basis: def2-SVP
   F. Weigend and R. Ahlrichs, Phys. Chem. Chem. Phys. 7, 3297 (2005).

----- AuxJ basis set information -----
Your calculation utilizes the auxiliary basis: def2/J
   F. Weigend, Phys. Chem. Chem. Phys. 8, 1057 (2006).

================================================================================
                                        WARNINGS
                       Please study these warnings very carefully!
================================================================================

WARNING: Old DensityContainer found on disk!
         Will remove this file - 
         If you want to keep old densities, please start your calculation with a different basename. 


INFO   : the flag for use of the SHARK integral package has been found!

================================================================================
                                       INPUT FILE
================================================================================
NAME = 9.inp
|  1> ! B3LYP DEF2-SVP TightSCF
|  2> %elprop
|  3> Polar 1
|  4> end
|  5> * xyzfile 0 1 _9.xyz
|  6> 
|  7>                          ****END OF INPUT****
================================================================================

                       ****************************
                       * Single Point Calculation *
                       ****************************

---------------------------------
CARTESIAN COORDINATES (ANGSTROEM)
---------------------------------
  C     -3.229538   -0.419439    0.729266
  C     -1.749863   -0.328914    0.466796
  C     -1.218723   -1.531241   -0.220106
  C     -0.047304   -1.421005   -0.831439
  C      0.742568   -0.166180   -0.857418
  C     -0.096814    1.064595   -0.819043
  C     -1.526002    0.847706   -0.458082
  O     -2.102605    1.958693    0.134663
  C      1.714417   -0.096196    0.315405
  C      2.694956   -1.240715    0.302086
  C      2.442509    1.235885    0.191247
  H     -3.494436   -1.276284    1.380754
  H     -3.511193    0.503867    1.288720
  H     -3.807200   -0.401636   -0.213275
  H     -1.224442   -0.212339    1.429091
  H     -1.775124   -2.457809   -0.215762
  H      0.340364   -2.304339   -1.334758
  H      1.370736   -0.138117   -1.776223
  H     -0.086958    1.594962   -1.815859
  H      0.313063    1.837498   -0.106283
  H     -2.136638    0.631490   -1.382151
  H     -1.674619    2.182008    0.987957
  H      1.178023   -0.113529    1.273076
  H      3.730402   -0.824156    0.472836
  H      2.691486   -1.784560   -0.656535
  H      2.528961   -1.916867    1.183253
  H      2.130054    1.946189    0.985595
  H      3.547514    1.102818    0.324999
  H      2.256407    1.727616   -0.778809

----------------------------
CARTESIAN COORDINATES (A.U.)
----------------------------
  NO LB      ZA    FRAG     MASS         X           Y           Z
   0 C     6.0000    0    12.011   -6.102942   -0.792625    1.378113
   1 C     6.0000    0    12.011   -3.306762   -0.621557    0.882117
   2 C     6.0000    0    12.011   -2.303053   -2.893626   -0.415940
   3 C     6.0000    0    12.011   -0.089392   -2.685310   -1.571192
   4 C     6.0000    0    12.011    1.403250   -0.314035   -1.620285
   5 C     6.0000    0    12.011   -0.182952    2.011793   -1.547767
   6 C     6.0000    0    12.011   -2.883726    1.601932   -0.865650
   7 O     8.0000    0    15.999   -3.973348    3.701393    0.254476
   8 C     6.0000    0    12.011    3.239779   -0.181784    0.596029
   9 C     6.0000    0    12.011    5.092729   -2.344612    0.570860
  10 C     6.0000    0    12.011    4.615673    2.335484    0.361404
  11 H     1.0000    0     1.008   -6.603527   -2.411827    2.609247
  12 H     1.0000    0     1.008   -6.635193    0.952171    2.435328
  13 H     1.0000    0     1.008   -7.194565   -0.758982   -0.403031
  14 H     1.0000    0     1.008   -2.313860   -0.401263    2.700591
  15 H     1.0000    0     1.008   -3.354498   -4.644586   -0.407731
  16 H     1.0000    0     1.008    0.643195   -4.354570   -2.522327
  17 H     1.0000    0     1.008    2.590316   -0.261003   -3.356575
  18 H     1.0000    0     1.008   -0.164327    3.014041   -3.431476
  19 H     1.0000    0     1.008    0.591603    3.472368   -0.200846
  20 H     1.0000    0     1.008   -4.037661    1.193343   -2.611887
  21 H     1.0000    0     1.008   -3.164571    4.123398    1.866968
  22 H     1.0000    0     1.008    2.226141   -0.214539    2.405765
  23 H     1.0000    0     1.008    7.049438   -1.557429    0.893531
  24 H     1.0000    0     1.008    5.086171   -3.372330   -1.240671
  25 H     1.0000    0     1.008    4.779044   -3.622354    2.236024
  26 H     1.0000    0     1.008    4.025219    3.677764    1.862505
  27 H     1.0000    0     1.008    6.703830    2.084024    0.614159
  28 H     1.0000    0     1.008    4.263991    3.264721   -1.471736

--------------------------------
INTERNAL COORDINATES (ANGSTROEM)
--------------------------------
 C      0   0   0     0.000000000000     0.00000000     0.00000000
 C      1   0   0     1.505497719078     0.00000000     0.00000000
 C      2   1   0     1.483082692277   112.58107535     0.00000000
 C      3   2   1     1.325934570839   117.55120686   161.44655615
 C      4   3   2     1.482955989047   123.29772610     0.00000000
 C      5   4   3     1.490248933291   113.47684964   329.34840273
 C      6   5   4     1.489936918526   115.23292923    13.08325344
 O      7   6   5     1.384958399665   112.72268616   152.98946026
 C      5   4   3     1.524762941701   111.39841510    90.88201656
 C      9   5   4     1.507168825196   111.90169389    59.99633199
 C      9   5   4     1.523145744828   106.38674249   180.93591205
 H      1   2   3     1.108508420614   112.56991806    60.77873091
 H      1   2   3     1.115711560744   106.60513921   177.24162870
 H      1   2   3     1.105619224568   111.34128795   292.88259837
 H      2   1   3     1.102573636947   108.81807735   239.53321173
 H      3   2   1     1.080800259882   120.58240558   341.44735908
 H      4   3   2     1.088069597747   117.42270635   180.00361106
 H      5   4   3     1.113366604591   109.65161066   207.78113837
 H      6   5   4     1.129171569462   111.11654198   251.32079629
 H      6   5   4     1.128452489092   112.16957199   136.05948989
 H      7   6   5     1.128507509905   110.39872250   271.56349307
 H      8   7   6     0.980383728882   111.93040500   296.76428578
 H      9   5   4     1.097794470912   111.02962589   298.88660265
 H     10   9   5     1.129081654220   108.36863718   132.97267149
 H     10   9   5     1.102149557259   112.35526241    13.16328511
 H     10   9   5     1.123027670638   110.73905728   246.24070565
 H     11   9   5     1.110472261943   111.50573707   109.42234775
 H     11   9   5     1.120996197147   110.95654708   226.76394250
 H     11   9   5     1.103377530087   112.38295232   348.97327379

---------------------------
INTERNAL COORDINATES (A.U.)
---------------------------
 C      0   0   0     0.000000000000     0.00000000     0.00000000
 C      1   0   0     2.844978384301     0.00000000     0.00000000
 C      2   1   0     2.802620122363   112.58107535     0.00000000
 C      3   2   1     2.505653210384   117.55120686   161.44655615
 C      4   3   2     2.802380687957   123.29772610     0.00000000
 C      5   4   3     2.816162355288   113.47684964   329.34840273
 C      6   5   4     2.815572732832   115.23292923    13.08325344
 O      7   6   5     2.617192082241   112.72268616   152.98946026
 C      5   4   3     2.881384378968   111.39841510    90.88201656
 C      9   5   4     2.848136317204   111.90169389    59.99633199
 C      9   5   4     2.878328319773   106.38674249   180.93591205
 H      1   2   3     2.094777332107   112.56991806    60.77873091
 H      1   2   3     2.108389294255   106.60513921   177.24162870
 H      1   2   3     2.089317542832   111.34128795   292.88259837
 H      2   1   3     2.083562216312   108.81807735   239.53321173
 H      3   2   1     2.042416496648   120.58240558   341.44735908
 H      4   3   2     2.056153554387   117.42270635   180.00361106
 H      5   4   3     2.103957969330   109.65161066   207.78113837
 H      6   5   4     2.133825024493   111.11654198   251.32079629
 H      6   5   4     2.132466159526   112.16957199   136.05948989
 H      7   6   5     2.132570133795   110.39872250   271.56349307
 H      8   7   6     1.852656753740   111.93040500   296.76428578
 H      9   5   4     2.074530901358   111.02962589   298.88660265
 H     10   9   5     2.133655109311   108.36863718   132.97267149
 H     10   9   5     2.082760821842   112.35526241    13.16328511
 H     10   9   5     2.122214738321   110.73905728   246.24070565
 H     11   9   5     2.098488454389   111.50573707   109.42234775
 H     11   9   5     2.118375809775   110.95654708   226.76394250
 H     11   9   5     2.085081354187   112.38295232   348.97327379

---------------------
BASIS SET INFORMATION
---------------------
There are 3 groups of distinct atoms

 Group   1 Type C   : 7s4p1d contracted to 3s2p1d pattern {511/31/1}
 Group   2 Type O   : 7s4p1d contracted to 3s2p1d pattern {511/31/1}
 Group   3 Type H   : 4s1p contracted to 2s1p pattern {31/1}

Atom   0C    basis set group =>   1
Atom   1C    basis set group =>   1
Atom   2C    basis set group =>   1
Atom   3C    basis set group =>   1
Atom   4C    basis set group =>   1
Atom   5C    basis set group =>   1
Atom   6C    basis set group =>   1
Atom   7O    basis set group =>   2
Atom   8C    basis set group =>   1
Atom   9C    basis set group =>   1
Atom  10C    basis set group =>   1
Atom  11H    basis set group =>   3
Atom  12H    basis set group =>   3
Atom  13H    basis set group =>   3
Atom  14H    basis set group =>   3
Atom  15H    basis set group =>   3
Atom  16H    basis set group =>   3
Atom  17H    basis set group =>   3
Atom  18H    basis set group =>   3
Atom  19H    basis set group =>   3
Atom  20H    basis set group =>   3
Atom  21H    basis set group =>   3
Atom  22H    basis set group =>   3
Atom  23H    basis set group =>   3
Atom  24H    basis set group =>   3
Atom  25H    basis set group =>   3
Atom  26H    basis set group =>   3
Atom  27H    basis set group =>   3
Atom  28H    basis set group =>   3
---------------------------------
AUXILIARY/J BASIS SET INFORMATION
---------------------------------
There are 3 groups of distinct atoms

 Group   1 Type C   : 12s5p4d2f1g contracted to 6s4p3d1f1g pattern {711111/2111/211/2/1}
 Group   2 Type O   : 12s5p4d2f1g contracted to 6s4p3d1f1g pattern {711111/2111/211/2/1}
 Group   3 Type H   : 5s2p1d contracted to 3s1p1d pattern {311/2/1}

Atom   0C    basis set group =>   1
Atom   1C    basis set group =>   1
Atom   2C    basis set group =>   1
Atom   3C    basis set group =>   1
Atom   4C    basis set group =>   1
Atom   5C    basis set group =>   1
Atom   6C    basis set group =>   1
Atom   7O    basis set group =>   2
Atom   8C    basis set group =>   1
Atom   9C    basis set group =>   1
Atom  10C    basis set group =>   1
Atom  11H    basis set group =>   3
Atom  12H    basis set group =>   3
Atom  13H    basis set group =>   3
Atom  14H    basis set group =>   3
Atom  15H    basis set group =>   3
Atom  16H    basis set group =>   3
Atom  17H    basis set group =>   3
Atom  18H    basis set group =>   3
Atom  19H    basis set group =>   3
Atom  20H    basis set group =>   3
Atom  21H    basis set group =>   3
Atom  22H    basis set group =>   3
Atom  23H    basis set group =>   3
Atom  24H    basis set group =>   3
Atom  25H    basis set group =>   3
Atom  26H    basis set group =>   3
Atom  27H    basis set group =>   3
Atom  28H    basis set group =>   3

Checking for AutoStart:
The File: 9.gbw exists
Trying to determine its content:
     ... Fine, the file contains calculation information
     ... Fine, the calculation information was read
     ... Fine, the file contains a basis set
     ... Fine, the basis set was read
     ... Fine, the file contains a geometry
     ... Fine, the geometry was read
     ... Fine, the file contains a set of orbitals
     ... Fine, the orbitals can be read
     => possible old guess file was deleted
     => GBW file was renamed to GES file
     => GES file is set as startup file
     => Guess is set to MORead
     ... now leaving AutoStart

------------------------------------------------------------------------------
                           ORCA GTO INTEGRAL CALCULATION
                           -- RI-GTO INTEGRALS CHOSEN --
------------------------------------------------------------------------------
------------------------------------------------------------------------------
                   ___                                                        
                  /   \      - P O W E R E D   B Y -                         
                 /     \                                                     
                 |  |  |   _    _      __       _____    __    __             
                 |  |  |  | |  | |    /  \     |  _  \  |  |  /  |          
                  \  \/   | |  | |   /    \    | | | |  |  | /  /          
                 / \  \   | |__| |  /  /\  \   | |_| |  |  |/  /          
                |  |  |   |  __  | /  /__\  \  |    /   |      \           
                |  |  |   | |  | | |   __   |  |    \   |  |\   \          
                \     /   | |  | | |  |  |  |  | |\  \  |  | \   \       
                 \___/    |_|  |_| |__|  |__|  |_| \__\ |__|  \__/        
                                                                              
                      - O R C A' S   B I G   F R I E N D -                    
                                      &                                       
                       - I N T E G R A L  F E E D E R -                       
                                                                              
 v1 FN, 2020, v2 2021                                                         
------------------------------------------------------------------------------


Reading SHARK input file 9.SHARKINP.tmp ... ok
----------------------
SHARK INTEGRAL PACKAGE
----------------------

Number of atoms                             ...     29
Number of basis functions                   ...    244
Number of shells                            ...    120
Maximum angular momentum                    ...      2
Integral batch strategy                     ... SHARK/LIBINT Hybrid
RI-J (if used) integral strategy            ... SPLIT-RIJ (Revised 2003 algorithm where possible)
Printlevel                                  ...      1
Contraction scheme used                     ... SEGMENTED contraction
Coulomb Range Separation                    ... NOT USED
Exchange Range Separation                   ... NOT USED
Finite Nucleus Model                        ... NOT USED
Auxiliary Coulomb fitting basis             ... AVAILABLE
   # of basis functions in Aux-J            ...    737
   # of shells in Aux-J                     ...    255
   Maximum angular momentum in Aux-J        ...      4
Auxiliary J/K fitting basis                 ... NOT available
Auxiliary Correlation fitting basis         ... NOT available
Auxiliary 'external' fitting basis          ... NOT available
Integral threshold                          ...     2.500000e-11
Primitive cut-off                           ...     2.500000e-12
Primitive pair pre-selection threshold      ...     2.500000e-12

Calculating pre-screening integrals         ... done (  0.1 sec) Dimension = 120
Organizing shell pair data                  ... done (  0.1 sec)
Shell pair information
Total number of shell pairs                 ...      7260
Shell pairs after pre-screening             ...      6620
Total number of primitive shell pairs       ...     24950
Primitive shell pairs kept                  ...     16311
          la=0 lb=0:   2237 shell pairs
          la=1 lb=0:   2517 shell pairs
          la=1 lb=1:    727 shell pairs
          la=2 lb=0:    686 shell pairs
          la=2 lb=1:    392 shell pairs
          la=2 lb=2:     61 shell pairs

Calculating one electron integrals          ... done (  0.1 sec)
Calculating RI/J V-Matrix + Cholesky decomp.... done (  0.1 sec)
Calculating Nuclear repulsion               ... done (  0.0 sec) ENN=    677.359740714960 Eh

SHARK setup successfully completed in   0.4 seconds

Maximum memory used throughout the entire GTOINT-calculation: 39.4 MB
-------------------------------------------------------------------------------
                                 ORCA SCF
-------------------------------------------------------------------------------

------------
SCF SETTINGS
------------
Hamiltonian:
 Density Functional     Method          .... DFT(GTOs)
 Exchange Functional    Exchange        .... B88
   X-Alpha parameter    XAlpha          ....  0.666667
   Becke's b parameter  XBeta           ....  0.004200
 Correlation Functional Correlation     .... LYP
 LDA part of GGA corr.  LDAOpt          .... VWN-5
 Gradients option       PostSCFGGA      .... off
 Hybrid DFT is turned on
   Fraction HF Exchange ScalHFX         ....  0.200000
   Scaling of DF-GGA-X  ScalDFX         ....  0.720000
   Scaling of DF-GGA-C  ScalDFC         ....  0.810000
   Scaling of DF-LDA-C  ScalLDAC        ....  1.000000
   Perturbative correction              ....  0.000000
   Density functional embedding theory  .... OFF
   NL short-range parameter             ....  4.800000
 RI-approximation to the Coulomb term is turned on
   Number of AuxJ basis functions       .... 737
   RIJ-COSX (HFX calculated with COS-X)).... on


General Settings:
 Integral files         IntName         .... 9
 Hartree-Fock type      HFTyp           .... RHF
 Total Charge           Charge          ....    0
 Multiplicity           Mult            ....    1
 Number of Electrons    NEL             ....   86
 Basis Dimension        Dim             ....  244
 Nuclear Repulsion      ENuc            ....    677.3597407150 Eh

Convergence Acceleration:
 DIIS                   CNVDIIS         .... on
   Start iteration      DIISMaxIt       ....    12
   Startup error        DIISStart       ....  0.200000
   # of expansion vecs  DIISMaxEq       ....     5
   Bias factor          DIISBfac        ....   1.050
   Max. coefficient     DIISMaxC        ....  10.000
 Trust-Rad. Augm. Hess. CNVTRAH         .... auto
   Auto Start mean grad. ratio tolernc. ....  1.125000
   Auto Start start iteration           ....     1
   Auto Start num. interpolation iter.  ....    10
   Max. Number of Micro iterations      ....    16
   Max. Number of Macro iterations      .... Maxiter - #DIIS iter
   Number of Davidson start vectors     ....     2
   Converg. threshold I  (grad. norm)   ....   1.000e-05
   Converg. threshold II (energy diff.) ....   1.000e-08
   Grad. Scal. Fac. for Micro threshold ....   0.100
   Minimum threshold for Micro iter.    ....   0.010
   NR start threshold (gradient norm)   ....   0.001
   Initial trust radius                 ....   0.400
   Minimum AH scaling param. (alpha)    ....   1.000
   Maximum AH scaling param. (alpha)    .... 1000.000
   Orbital update algorithm             .... Taylor
   White noise on init. David. guess    .... on
   Maximum white noise                  ....   0.010
   Quad. conv. algorithm                .... NR
 SOSCF                  CNVSOSCF        .... on
   Start iteration      SOSCFMaxIt      ....   150
   Startup grad/error   SOSCFStart      ....  0.003300
 Level Shifting         CNVShift        .... on
   Level shift para.    LevelShift      ....    0.2500
   Turn off err/grad.   ShiftErr        ....    0.0010
 Zerner damping         CNVZerner       .... off
 Static damping         CNVDamp         .... on
   Fraction old density DampFac         ....    0.7000
   Max. Damping (<1)    DampMax         ....    0.9800
   Min. Damping (>=0)   DampMin         ....    0.0000
   Turn off err/grad.   DampErr         ....    0.1000
 Fernandez-Rico         CNVRico         .... off

SCF Procedure:
 Maximum # iterations   MaxIter         ....   125
 SCF integral mode      SCFMode         .... Direct
   Integral package                     .... SHARK and LIBINT hybrid scheme
 Reset frequency        DirectResetFreq ....    20
 Integral Threshold     Thresh          ....  2.500e-11 Eh
 Primitive CutOff       TCut            ....  2.500e-12 Eh

Convergence Tolerance:
 Convergence Check Mode ConvCheckMode   .... Total+1el-Energy
 Convergence forced     ConvForced      .... 0
 Energy Change          TolE            ....  1.000e-08 Eh
 1-El. energy change                    ....  1.000e-05 Eh
 Orbital Gradient       TolG            ....  1.000e-05
 Orbital Rotation angle TolX            ....  1.000e-05
 DIIS Error             TolErr          ....  5.000e-07


Diagonalization of the overlap matrix:
Smallest eigenvalue                        ... 3.907e-04
Time for diagonalization                   ...    0.027 sec
Threshold for overlap eigenvalues          ... 1.000e-08
Number of eigenvalues below threshold      ... 0
Time for construction of square roots      ...    0.018 sec
Total time needed                          ...    0.045 sec

---------------------
INITIAL GUESS: MOREAD
---------------------
Guess MOs are being read from file: 9.ges
Input Geometry matches current geometry (good)
Input basis set matches current basis set (good)
MOs were renormalized
MOs were reorthogonalized (Cholesky)
                      ------------------
                      INITIAL GUESS DONE (   0.0 sec)
                      ------------------
-------------------
DFT GRID GENERATION
-------------------

General Integration Accuracy     IntAcc      ... 4.388
Radial Grid Type                 RadialGrid  ... OptM3 with GC (2021)
Angular Grid (max. ang.)         AngularGrid ... 4 (Lebedev-302)
Angular grid pruning method      GridPruning ... 4 (adaptive)
Weight generation scheme         WeightScheme... Becke
Basis function cutoff            BFCut       ... 1.0000e-11
Integration weight cutoff        WCut        ... 1.0000e-14
Angular grids for H and He will be reduced by one unit
Partially contracted basis set               ... off
Rotationally invariant grid construction     ... off

Total number of grid points                  ...   122559
Total number of batches                      ...     1928
Average number of points per batch           ...       63
Average number of grid points per atom       ...     4226
Time for grid setup =    2.913 sec

--------------------
COSX GRID GENERATION
--------------------

GRIDX 1
-------
General Integration Accuracy     IntAcc      ... 3.816
Radial Grid Type                 RadialGrid  ... OptM3 with GC (2021)
Angular Grid (max. ang.)         AngularGrid ... 1 (Lebedev-50)
Angular grid pruning method      GridPruning ... 4 (adaptive)
Weight generation scheme         WeightScheme... Becke
Basis function cutoff            BFCut       ... 1.0000e-11
Integration weight cutoff        WCut        ... 1.0000e-14
Angular grids for H and He will be reduced by one unit
Partially contracted basis set               ... on
Rotationally invariant grid construction     ... off

Total number of grid points                  ...    15682
Total number of batches                      ...      260
Average number of points per batch           ...       60
Average number of grid points per atom       ...      541
UseSFitting                                  ... on

GRIDX 2
-------
General Integration Accuracy     IntAcc      ... 4.020
Radial Grid Type                 RadialGrid  ... OptM3 with GC (2021)
Angular Grid (max. ang.)         AngularGrid ... 2 (Lebedev-110)
Angular grid pruning method      GridPruning ... 4 (adaptive)
Weight generation scheme         WeightScheme... Becke
Basis function cutoff            BFCut       ... 1.0000e-11
Integration weight cutoff        WCut        ... 1.0000e-14
Angular grids for H and He will be reduced by one unit
Partially contracted basis set               ... on
Rotationally invariant grid construction     ... off

Total number of grid points                  ...    32514
Total number of batches                      ...      524
Average number of points per batch           ...       62
Average number of grid points per atom       ...     1121
UseSFitting                                  ... on

GRIDX 3
-------
General Integration Accuracy     IntAcc      ... 4.338
Radial Grid Type                 RadialGrid  ... OptM3 with GC (2021)
Angular Grid (max. ang.)         AngularGrid ... 3 (Lebedev-194)
Angular grid pruning method      GridPruning ... 4 (adaptive)
Weight generation scheme         WeightScheme... Becke
Basis function cutoff            BFCut       ... 1.0000e-11
Integration weight cutoff        WCut        ... 1.0000e-14
Angular grids for H and He will be reduced by one unit
Partially contracted basis set               ... on
Rotationally invariant grid construction     ... off

Total number of grid points                  ...    70674
Total number of batches                      ...     1120
Average number of points per batch           ...       63
Average number of grid points per atom       ...     2437
UseSFitting                                  ... on

Time for X-Grid setup             =    5.043 sec

--------------
SCF ITERATIONS
--------------
ITER       Energy         Delta-E        Max-DP      RMS-DP      [F,P]     Damp
               ***  Starting incremental Fock matrix formation  ***
                      *** Initiating the SOSCF procedure ***
                      *** Re-Reading the Fockian *** 
                      *** Removing any level shift *** 
ITER      Energy       Delta-E        Grad      Rot      Max-DP    RMS-DP
  0   -466.41494426 -466.4149442626  0.000002  0.000002  0.000007  0.000000
               *** Restarting incremental Fock matrix formation ***
                  ***Gradient check signals convergence***
              ***Rediagonalizing the Fockian in SOSCF/NRSCF***

               *****************************************************
               *                     SUCCESS                       *
               *           SCF CONVERGED AFTER   1 CYCLES          *
               *****************************************************

Old exchange energy                            =    -13.303048746 Eh
New exchange energy                            =    -13.302987899 Eh
Exchange energy change after final integration =      0.000060847 Eh
Total energy after final integration           =   -466.414883415 Eh
Final COS-X integration done in                =    41.903 sec

----------------
TOTAL SCF ENERGY
----------------

Total Energy       :         -466.41488342 Eh          -12691.79422 eV

Components:
Nuclear Repulsion  :          677.35974071 Eh           18431.89560 eV
Electronic Energy  :        -1143.77462413 Eh          -31123.68982 eV
One Electron Energy:        -1974.39971058 Eh          -53726.14751 eV
Two Electron Energy:          830.62508645 Eh           22602.45769 eV
Max COSX asymmetry :            0.00000547 Eh               0.00015 eV

Virial components:
Potential Energy   :         -928.24479940 Eh          -25258.82513 eV
Kinetic Energy     :          461.82991598 Eh           12567.03091 eV
Virial Ratio       :            2.00992783


DFT components:
N(Alpha)           :       43.000000737210 electrons
N(Beta)            :       43.000000737210 electrons
N(Total)           :       86.000001474420 electrons
E(X)               :      -52.720037195196 Eh       
E(C)               :       -3.339839708879 Eh       
E(XC)              :      -56.059876904075 Eh       
DFET-embed. en.    :        0.000000000000 Eh       

---------------
SCF CONVERGENCE
---------------

  Last Energy change         ...   -1.9446e-10  Tolerance :   1.0000e-08
  Last MAX-Density change    ...    4.8850e-15  Tolerance :   1.0000e-07
  Last RMS-Density change    ...    4.5470e-17  Tolerance :   5.0000e-09
  Last Orbital Gradient      ...    1.8562e-06  Tolerance :   1.0000e-05
  Last Orbital Rotation      ...    7.2926e-06  Tolerance :   1.0000e-05

             **** THE GBW FILE WAS UPDATED (9.gbw) ****
             **** DENSITY 9.scfp WAS UPDATED ****
             **** ENERGY FILE WAS UPDATED (9.en.tmp) ****
             **** THE GBW FILE WAS UPDATED (9.gbw) ****
             **** DENSITY 9.scfp WAS UPDATED ****
----------------
ORBITAL ENERGIES
----------------

  NO   OCC          E(Eh)            E(eV) 
   0   2.0000     -19.117480      -520.2131 
   1   2.0000     -10.219519      -278.0873 
   2   2.0000     -10.182616      -277.0831 
   3   2.0000     -10.182140      -277.0701 
   4   2.0000     -10.174709      -276.8679 
   5   2.0000     -10.174538      -276.8632 
   6   2.0000     -10.173917      -276.8464 
   7   2.0000     -10.171738      -276.7871 
   8   2.0000     -10.170634      -276.7570 
   9   2.0000     -10.168723      -276.7050 
  10   2.0000     -10.165951      -276.6296 
  11   2.0000      -1.009346       -27.4657 
  12   2.0000      -0.848708       -23.0945 
  13   2.0000      -0.798579       -21.7304 
  14   2.0000      -0.742377       -20.2011 
  15   2.0000      -0.727192       -19.7879 
  16   2.0000      -0.672098       -18.2887 
  17   2.0000      -0.663195       -18.0465 
  18   2.0000      -0.599634       -16.3169 
  19   2.0000      -0.596882       -16.2420 
  20   2.0000      -0.559523       -15.2254 
  21   2.0000      -0.529824       -14.4173 
  22   2.0000      -0.498388       -13.5618 
  23   2.0000      -0.467080       -12.7099 
  24   2.0000      -0.464107       -12.6290 
  25   2.0000      -0.451746       -12.2926 
  26   2.0000      -0.445270       -12.1164 
  27   2.0000      -0.427496       -11.6328 
  28   2.0000      -0.408922       -11.1273 
  29   2.0000      -0.397872       -10.8266 
  30   2.0000      -0.389994       -10.6123 
  31   2.0000      -0.385402       -10.4873 
  32   2.0000      -0.362428        -9.8622 
  33   2.0000      -0.358622        -9.7586 
  34   2.0000      -0.345612        -9.4046 
  35   2.0000      -0.341889        -9.3033 
  36   2.0000      -0.337593        -9.1864 
  37   2.0000      -0.327597        -8.9144 
  38   2.0000      -0.317903        -8.6506 
  39   2.0000      -0.304578        -8.2880 
  40   2.0000      -0.292485        -7.9589 
  41   2.0000      -0.259897        -7.0722 
  42   2.0000      -0.239448        -6.5157 
  43   0.0000       0.015083         0.4104 
  44   0.0000       0.041029         1.1165 
  45   0.0000       0.054786         1.4908 
  46   0.0000       0.071384         1.9425 
  47   0.0000       0.082329         2.2403 
  48   0.0000       0.087309         2.3758 
  49   0.0000       0.090155         2.4533 
  50   0.0000       0.107396         2.9224 
  51   0.0000       0.112472         3.0605 
  52   0.0000       0.114022         3.1027 
  53   0.0000       0.133210         3.6248 
  54   0.0000       0.144515         3.9324 
  55   0.0000       0.150295         4.0897 
  56   0.0000       0.150586         4.0977 
  57   0.0000       0.163192         4.4407 
  58   0.0000       0.170070         4.6278 
  59   0.0000       0.178682         4.8622 
  60   0.0000       0.186887         5.0855 
  61   0.0000       0.201391         5.4801 
  62   0.0000       0.229520         6.2455 
  63   0.0000       0.236339         6.4311 
  64   0.0000       0.253357         6.8942 
  65   0.0000       0.260665         7.0931 
  66   0.0000       0.267304         7.2737 
  67   0.0000       0.287106         7.8126 
  68   0.0000       0.288790         7.8584 
  69   0.0000       0.307318         8.3625 
  70   0.0000       0.318043         8.6544 
  71   0.0000       0.360776         9.8172 
  72   0.0000       0.380229        10.3466 
  73   0.0000       0.395947        10.7743 
  74   0.0000       0.423578        11.5261 
  75   0.0000       0.429917        11.6986 
  76   0.0000       0.441894        12.0246 
  77   0.0000       0.447260        12.1706 
  78   0.0000       0.476728        12.9724 
  79   0.0000       0.492085        13.3903 
  80   0.0000       0.502704        13.6793 
  81   0.0000       0.516476        14.0540 
  82   0.0000       0.527843        14.3633 
  83   0.0000       0.537395        14.6233 
  84   0.0000       0.554827        15.0976 
  85   0.0000       0.577392        15.7116 
  86   0.0000       0.584641        15.9089 
  87   0.0000       0.597255        16.2521 
  88   0.0000       0.607030        16.5181 
  89   0.0000       0.612229        16.6596 
  90   0.0000       0.618351        16.8262 
  91   0.0000       0.621131        16.9018 
  92   0.0000       0.633968        17.2511 
  93   0.0000       0.635053        17.2807 
  94   0.0000       0.641828        17.4650 
  95   0.0000       0.647408        17.6169 
  96   0.0000       0.652309        17.7502 
  97   0.0000       0.661667        18.0049 
  98   0.0000       0.666852        18.1460 
  99   0.0000       0.672309        18.2945 
 100   0.0000       0.677576        18.4378 
 101   0.0000       0.683023        18.5860 
 102   0.0000       0.684406        18.6236 
 103   0.0000       0.689069        18.7505 
 104   0.0000       0.695254        18.9188 
 105   0.0000       0.700307        19.0563 
 106   0.0000       0.703532        19.1441 
 107   0.0000       0.712611        19.3911 
 108   0.0000       0.722400        19.6575 
 109   0.0000       0.727865        19.8062 
 110   0.0000       0.733804        19.9678 
 111   0.0000       0.750834        20.4312 
 112   0.0000       0.754986        20.5442 
 113   0.0000       0.766782        20.8652 
 114   0.0000       0.770502        20.9664 
 115   0.0000       0.789393        21.4805 
 116   0.0000       0.800954        21.7951 
 117   0.0000       0.829077        22.5603 
 118   0.0000       0.850153        23.1338 
 119   0.0000       0.867392        23.6029 
 120   0.0000       0.885328        24.0910 
 121   0.0000       0.889447        24.2031 
 122   0.0000       0.939703        25.5706 
 123   0.0000       0.986627        26.8475 
 124   0.0000       1.003220        27.2990 
 125   0.0000       1.011448        27.5229 
 126   0.0000       1.035512        28.1777 
 127   0.0000       1.068681        29.0803 
 128   0.0000       1.093787        29.7635 
 129   0.0000       1.103939        30.0397 
 130   0.0000       1.164241        31.6806 
 131   0.0000       1.173883        31.9430 
 132   0.0000       1.237846        33.6835 
 133   0.0000       1.267528        34.4912 
 134   0.0000       1.289208        35.0811 
 135   0.0000       1.311456        35.6865 
 136   0.0000       1.319371        35.9019 
 137   0.0000       1.376978        37.4695 
 138   0.0000       1.391099        37.8537 
 139   0.0000       1.404506        38.2186 
 140   0.0000       1.408002        38.3137 
 141   0.0000       1.433232        39.0002 
 142   0.0000       1.445369        39.3305 
 143   0.0000       1.491906        40.5968 
 144   0.0000       1.516085        41.2548 
 145   0.0000       1.522507        41.4295 
 146   0.0000       1.527656        41.5696 
 147   0.0000       1.544779        42.0356 
 148   0.0000       1.560627        42.4668 
 149   0.0000       1.584357        43.1126 
 150   0.0000       1.599791        43.5325 
 151   0.0000       1.621107        44.1126 
 152   0.0000       1.659924        45.1688 
 153   0.0000       1.664273        45.2872 
 154   0.0000       1.678188        45.6658 
 155   0.0000       1.694857        46.1194 
 156   0.0000       1.717544        46.7368 
 157   0.0000       1.734867        47.2081 
 158   0.0000       1.751836        47.6699 
 159   0.0000       1.755933        47.7814 
 160   0.0000       1.776697        48.3464 
 161   0.0000       1.782397        48.5015 
 162   0.0000       1.785873        48.5961 
 163   0.0000       1.803215        49.0680 
 164   0.0000       1.806124        49.1471 
 165   0.0000       1.811487        49.2931 
 166   0.0000       1.825560        49.6760 
 167   0.0000       1.833019        49.8790 
 168   0.0000       1.844272        50.1852 
 169   0.0000       1.864084        50.7243 
 170   0.0000       1.873062        50.9686 
 171   0.0000       1.878286        51.1108 
 172   0.0000       1.900505        51.7154 
 173   0.0000       1.914834        52.1053 
 174   0.0000       1.917152        52.1684 
 175   0.0000       1.922932        52.3256 
 176   0.0000       1.933119        52.6028 
 177   0.0000       1.940151        52.7942 
 178   0.0000       1.949772        53.0560 
 179   0.0000       1.959837        53.3299 
 180   0.0000       1.974552        53.7303 
 181   0.0000       1.997610        54.3577 
 182   0.0000       2.003754        54.5249 
 183   0.0000       2.027995        55.1846 
 184   0.0000       2.049276        55.7636 
 185   0.0000       2.062316        56.1185 
 186   0.0000       2.081769        56.6478 
 187   0.0000       2.098162        57.0939 
 188   0.0000       2.108026        57.3623 
 189   0.0000       2.125782        57.8455 
 190   0.0000       2.132053        58.0161 
 191   0.0000       2.158584        58.7381 
 192   0.0000       2.176332        59.2210 
 193   0.0000       2.188231        59.5448 
 194   0.0000       2.206684        60.0469 
 195   0.0000       2.227104        60.6026 
 196   0.0000       2.252186        61.2851 
 197   0.0000       2.264939        61.6321 
 198   0.0000       2.269609        61.7592 
 199   0.0000       2.292535        62.3831 
 200   0.0000       2.330786        63.4239 
 201   0.0000       2.339920        63.6725 
 202   0.0000       2.358322        64.1732 
 203   0.0000       2.372553        64.5605 
 204   0.0000       2.416927        65.7679 
 205   0.0000       2.441703        66.4421 
 206   0.0000       2.449077        66.6428 
 207   0.0000       2.454696        66.7957 
 208   0.0000       2.471336        67.2485 
 209   0.0000       2.485637        67.6376 
 210   0.0000       2.511046        68.3290 
 211   0.0000       2.542025        69.1720 
 212   0.0000       2.568051        69.8802 
 213   0.0000       2.578001        70.1510 
 214   0.0000       2.582060        70.2614 
 215   0.0000       2.625015        71.4303 
 216   0.0000       2.659625        72.3721 
 217   0.0000       2.691608        73.2424 
 218   0.0000       2.707697        73.6802 
 219   0.0000       2.736289        74.4582 
 220   0.0000       2.774325        75.4932 
 221   0.0000       2.786237        75.8174 
 222   0.0000       2.814352        76.5824 
 223   0.0000       2.840711        77.2997 
 224   0.0000       2.872122        78.1544 
 225   0.0000       2.875448        78.2449 
 226   0.0000       2.906755        79.0968 
 227   0.0000       2.920643        79.4747 
 228   0.0000       2.928599        79.6912 
 229   0.0000       2.945359        80.1473 
 230   0.0000       2.955781        80.4309 
 231   0.0000       2.969464        80.8032 
 232   0.0000       2.979339        81.0719 
 233   0.0000       2.994436        81.4827 
 234   0.0000       3.031889        82.5019 
 235   0.0000       3.047092        82.9156 
 236   0.0000       3.058793        83.2340 
 237   0.0000       3.085429        83.9588 
 238   0.0000       3.089730        84.0758 
 239   0.0000       3.163323        86.0784 
 240   0.0000       3.171999        86.3145 
 241   0.0000       3.364938        91.5646 
 242   0.0000       3.480573        94.7112 
 243   0.0000       3.764170       102.4283 

                    ********************************
                    * MULLIKEN POPULATION ANALYSIS *
                    ********************************

-----------------------
MULLIKEN ATOMIC CHARGES
-----------------------
   0 C :    0.094433
   1 C :   -0.028288
   2 C :   -0.065207
   3 C :    0.000952
   4 C :    0.021296
   5 C :    0.151810
   6 C :    0.101716
   7 O :   -0.300812
   8 C :   -0.157577
   9 C :    0.076450
  10 C :    0.056301
  11 H :   -0.000135
  12 H :   -0.005021
  13 H :   -0.000448
  14 H :   -0.017110
  15 H :   -0.030298
  16 H :   -0.025838
  17 H :   -0.022491
  18 H :   -0.002043
  19 H :   -0.032651
  20 H :   -0.014883
  21 H :    0.164559
  22 H :   -0.007764
  23 H :   -0.002802
  24 H :    0.010165
  25 H :    0.010060
  26 H :    0.006252
  27 H :    0.000951
  28 H :    0.018422
Sum of atomic charges:    0.0000000

--------------------------------
MULLIKEN REDUCED ORBITAL CHARGES
--------------------------------
  0 C s       :     2.953486  s :     2.953486
      pz      :     0.978806  p :     2.922779
      px      :     0.966134
      py      :     0.977838
      dz2     :     0.003491  d :     0.029302
      dxz     :     0.007208
      dyz     :     0.006745
      dx2y2   :     0.007844
      dxy     :     0.004014
  1 C s       :     3.012559  s :     3.012559
      pz      :     0.998950  p :     2.969587
      px      :     0.997717
      py      :     0.972920
      dz2     :     0.008067  d :     0.046142
      dxz     :     0.009714
      dyz     :     0.009759
      dx2y2   :     0.010189
      dxy     :     0.008413
  2 C s       :     3.205804  s :     3.205804
      pz      :     0.988732  p :     2.822944
      px      :     0.958209
      py      :     0.876003
      dz2     :     0.006118  d :     0.036459
      dxz     :     0.005847
      dyz     :     0.004941
      dx2y2   :     0.009414
      dxy     :     0.010139
  3 C s       :     3.131833  s :     3.131833
      pz      :     0.974345  p :     2.831023
      px      :     0.980283
      py      :     0.876394
      dz2     :     0.004244  d :     0.036192
      dxz     :     0.006527
      dyz     :     0.005521
      dx2y2   :     0.009453
      dxy     :     0.010448
  4 C s       :     2.975445  s :     2.975445
      pz      :     0.988076  p :     2.956635
      px      :     0.980996
      py      :     0.987563
      dz2     :     0.008956  d :     0.046625
      dxz     :     0.010909
      dyz     :     0.006230
      dx2y2   :     0.008565
      dxy     :     0.011965
  5 C s       :     2.889361  s :     2.889361
      pz      :     0.973815  p :     2.922807
      px      :     0.975310
      py      :     0.973681
      dz2     :     0.005639  d :     0.036022
      dxz     :     0.005760
      dyz     :     0.008523
      dx2y2   :     0.008506
      dxy     :     0.007593
  6 C s       :     3.021604  s :     3.021604
      pz      :     0.988988  p :     2.799005
      px      :     1.017077
      py      :     0.792940
      dz2     :     0.010927  d :     0.077675
      dxz     :     0.013793
      dyz     :     0.017543
      dx2y2   :     0.020324
      dxy     :     0.015088
  7 O s       :     3.717895  s :     3.717895
      pz      :     1.344282  p :     4.569768
      px      :     1.681182
      py      :     1.544305
      dz2     :     0.002589  d :     0.013149
      dxz     :     0.003361
      dyz     :     0.001544
      dx2y2   :     0.002388
      dxy     :     0.003266
  8 C s       :     3.135050  s :     3.135050
      pz      :     0.999255  p :     2.976821
      px      :     0.983775
      py      :     0.993790
      dz2     :     0.009816  d :     0.045706
      dxz     :     0.010051
      dyz     :     0.005644
      dx2y2   :     0.008544
      dxy     :     0.011652
  9 C s       :     2.952963  s :     2.952963
      pz      :     0.975978  p :     2.942344
      px      :     0.978503
      py      :     0.987864
      dz2     :     0.005715  d :     0.028243
      dxz     :     0.001998
      dyz     :     0.008148
      dx2y2   :     0.005770
      dxy     :     0.006611
 10 C s       :     2.970468  s :     2.970468
      pz      :     0.987914  p :     2.944247
      px      :     0.978473
      py      :     0.977861
      dz2     :     0.005412  d :     0.028984
      dxz     :     0.002143
      dyz     :     0.008516
      dx2y2   :     0.007602
      dxy     :     0.005311
 11 H s       :     0.977562  s :     0.977562
      pz      :     0.007838  p :     0.022573
      px      :     0.004516
      py      :     0.010220
 12 H s       :     0.981396  s :     0.981396
      pz      :     0.006915  p :     0.023625
      px      :     0.004807
      py      :     0.011903
 13 H s       :     0.977414  s :     0.977414
      pz      :     0.011096  p :     0.023035
      px      :     0.006792
      py      :     0.005147
 14 H s       :     0.995338  s :     0.995338
      pz      :     0.011390  p :     0.021772
      px      :     0.006166
      py      :     0.004217
 15 H s       :     1.007042  s :     1.007042
      pz      :     0.004596  p :     0.023256
      px      :     0.006884
      py      :     0.011776
 16 H s       :     1.002654  s :     1.002654
      pz      :     0.007007  p :     0.023184
      px      :     0.005527
      py      :     0.010650
 17 H s       :     1.001649  s :     1.001649
      pz      :     0.010686  p :     0.020842
      px      :     0.006684
      py      :     0.003473
 18 H s       :     0.980331  s :     0.980331
      pz      :     0.011479  p :     0.021712
      px      :     0.004053
      py      :     0.006179
 19 H s       :     1.009213  s :     1.009213
      pz      :     0.008334  p :     0.023438
      px      :     0.006402
      py      :     0.008702
 20 H s       :     0.996021  s :     0.996021
      pz      :     0.010180  p :     0.018862
      px      :     0.006126
      py      :     0.002556
 21 H s       :     0.769111  s :     0.769111
      pz      :     0.030459  p :     0.066330
      px      :     0.019204
      py      :     0.016666
 22 H s       :     0.986193  s :     0.986193
      pz      :     0.011330  p :     0.021571
      px      :     0.006245
      py      :     0.003997
 23 H s       :     0.979864  s :     0.979864
      pz      :     0.005100  p :     0.022938
      px      :     0.011939
      py      :     0.005898
 24 H s       :     0.966946  s :     0.966946
      pz      :     0.011400  p :     0.022888
      px      :     0.004565
      py      :     0.006923
 25 H s       :     0.967641  s :     0.967641
      pz      :     0.009806  p :     0.022298
      px      :     0.004809
      py      :     0.007683
 26 H s       :     0.970694  s :     0.970694
      pz      :     0.009459  p :     0.023054
      px      :     0.005619
      py      :     0.007976
 27 H s       :     0.976284  s :     0.976284
      pz      :     0.004987  p :     0.022765
      px      :     0.013332
      py      :     0.004445
 28 H s       :     0.958125  s :     0.958125
      pz      :     0.011997  p :     0.023453
      px      :     0.005198
      py      :     0.006258


                     *******************************
                     * LOEWDIN POPULATION ANALYSIS *
                     *******************************

----------------------
LOEWDIN ATOMIC CHARGES
----------------------
   0 C :   -0.047426
   1 C :   -0.061339
   2 C :   -0.029781
   3 C :   -0.028939
   4 C :   -0.035540
   5 C :   -0.042219
   6 C :    0.052372
   7 O :   -0.116271
   8 C :   -0.035420
   9 C :   -0.052351
  10 C :   -0.053680
  11 H :    0.016861
  12 H :    0.020580
  13 H :    0.023154
  14 H :    0.018739
  15 H :    0.017826
  16 H :    0.018473
  17 H :    0.024819
  18 H :    0.029182
  19 H :    0.026953
  20 H :    0.021445
  21 H :    0.076844
  22 H :    0.017555
  23 H :    0.023242
  24 H :    0.021495
  25 H :    0.027791
  26 H :    0.020750
  27 H :    0.020134
  28 H :    0.024750

-------------------------------
LOEWDIN REDUCED ORBITAL CHARGES
-------------------------------
  0 C s       :     2.842967  s :     2.842967
      pz      :     1.053305  p :     3.130278
      px      :     1.018821
      py      :     1.058152
      dz2     :     0.008958  d :     0.074181
      dxz     :     0.017609
      dyz     :     0.017379
      dx2y2   :     0.020662
      dxy     :     0.009573
  1 C s       :     2.832550  s :     2.832550
      pz      :     1.035917  p :     3.115342
      px      :     1.035986
      py      :     1.043439
      dz2     :     0.019462  d :     0.113446
      dxz     :     0.021911
      dyz     :     0.026337
      dx2y2   :     0.027740
      dxy     :     0.017997
  2 C s       :     2.863076  s :     2.863076
      pz      :     1.001381  p :     3.072253
      px      :     1.055451
      py      :     1.015421
      dz2     :     0.013848  d :     0.094453
      dxz     :     0.015233
      dyz     :     0.012214
      dx2y2   :     0.024716
      dxy     :     0.028442
  3 C s       :     2.860934  s :     2.860934
      pz      :     1.001650  p :     3.074459
      px      :     1.055715
      py      :     1.017094
      dz2     :     0.009139  d :     0.093545
      dxz     :     0.016188
      dyz     :     0.013977
      dx2y2   :     0.025232
      dxy     :     0.029010
  4 C s       :     2.823475  s :     2.823475
      pz      :     1.032668  p :     3.097142
      px      :     1.024792
      py      :     1.039682
      dz2     :     0.021864  d :     0.114922
      dxz     :     0.029442
      dyz     :     0.011713
      dx2y2   :     0.020199
      dxy     :     0.031704
  5 C s       :     2.840602  s :     2.840602
      pz      :     1.051009  p :     3.108236
      px      :     1.034700
      py      :     1.022527
      dz2     :     0.014700  d :     0.093381
      dxz     :     0.012714
      dyz     :     0.022310
      dx2y2   :     0.022543
      dxy     :     0.021114
  6 C s       :     2.832516  s :     2.832516
      pz      :     1.012487  p :     2.939540
      px      :     1.025251
      py      :     0.901803
      dz2     :     0.023106  d :     0.175572
      dxz     :     0.031371
      dyz     :     0.040225
      dx2y2   :     0.049128
      dxy     :     0.031743
  7 O s       :     3.430590  s :     3.430590
      pz      :     1.409394  p :     4.660331
      px      :     1.695483
      py      :     1.555454
      dz2     :     0.005815  d :     0.025350
      dxz     :     0.006742
      dyz     :     0.003539
      dx2y2   :     0.003890
      dxy     :     0.005363
  8 C s       :     2.835671  s :     2.835671
      pz      :     1.035872  p :     3.090920
      px      :     1.025365
      py      :     1.029684
      dz2     :     0.024110  d :     0.108829
      dxz     :     0.026932
      dyz     :     0.010093
      dx2y2   :     0.017689
      dxy     :     0.030005
  9 C s       :     2.851550  s :     2.851550
      pz      :     1.050455  p :     3.129049
      px      :     1.035763
      py      :     1.042832
      dz2     :     0.015063  d :     0.071751
      dxz     :     0.003908
      dyz     :     0.021041
      dx2y2   :     0.014070
      dxy     :     0.017669
 10 C s       :     2.853960  s :     2.853960
      pz      :     1.055373  p :     3.127093
      px      :     1.043601
      py      :     1.028120
      dz2     :     0.014263  d :     0.072627
      dxz     :     0.004469
      dyz     :     0.021069
      dx2y2   :     0.019642
      dxy     :     0.013184
 11 H s       :     0.919956  s :     0.919956
      pz      :     0.021164  p :     0.063183
      px      :     0.013823
      py      :     0.028196
 12 H s       :     0.914418  s :     0.914418
      pz      :     0.017368  p :     0.065002
      px      :     0.014198
      py      :     0.033436
 13 H s       :     0.913273  s :     0.913273
      pz      :     0.031984  p :     0.063573
      px      :     0.019804
      py      :     0.011786
 14 H s       :     0.914085  s :     0.914085
      pz      :     0.033784  p :     0.067176
      px      :     0.019356
      py      :     0.014035
 15 H s       :     0.911761  s :     0.911761
      pz      :     0.014695  p :     0.070414
      px      :     0.019969
      py      :     0.035749
 16 H s       :     0.912333  s :     0.912333
      pz      :     0.020659  p :     0.069193
      px      :     0.016207
      py      :     0.032327
 17 H s       :     0.911761  s :     0.911761
      pz      :     0.031094  p :     0.063420
      px      :     0.020344
      py      :     0.011982
 18 H s       :     0.909271  s :     0.909271
      pz      :     0.031817  p :     0.061547
      px      :     0.012542
      py      :     0.017189
 19 H s       :     0.908372  s :     0.908372
      pz      :     0.022899  p :     0.064675
      px      :     0.016749
      py      :     0.025027
 20 H s       :     0.919860  s :     0.919860
      pz      :     0.030356  p :     0.058695
      px      :     0.019373
      py      :     0.008966
 21 H s       :     0.749723  s :     0.749723
      pz      :     0.078322  p :     0.173433
      px      :     0.054145
      py      :     0.040966
 22 H s       :     0.916163  s :     0.916163
      pz      :     0.033797  p :     0.066282
      px      :     0.019490
      py      :     0.012995
 23 H s       :     0.915666  s :     0.915666
      pz      :     0.011497  p :     0.061093
      px      :     0.034247
      py      :     0.015349
 24 H s       :     0.913604  s :     0.913604
      pz      :     0.033193  p :     0.064902
      px      :     0.012127
      py      :     0.019582
 25 H s       :     0.911061  s :     0.911061
      pz      :     0.027432  p :     0.061147
      px      :     0.012420
      py      :     0.021295
 26 H s       :     0.915481  s :     0.915481
      pz      :     0.025720  p :     0.063770
      px      :     0.014601
      py      :     0.023448
 27 H s       :     0.917765  s :     0.917765
      pz      :     0.011786  p :     0.062101
      px      :     0.038737
      py      :     0.011577
 28 H s       :     0.909669  s :     0.909669
      pz      :     0.034350  p :     0.065581
      px      :     0.012951
      py      :     0.018280


                      *****************************
                      * MAYER POPULATION ANALYSIS *
                      *****************************

  NA   - Mulliken gross atomic population
  ZA   - Total nuclear charge
  QA   - Mulliken gross atomic charge
  VA   - Mayer's total valence
  BVA  - Mayer's bonded valence
  FA   - Mayer's free valence

  ATOM       NA         ZA         QA         VA         BVA        FA
  0 C      5.9056     6.0000     0.0944     3.9465     3.9465     0.0000
  1 C      6.0283     6.0000    -0.0283     4.0200     4.0200     0.0000
  2 C      6.0652     6.0000    -0.0652     3.9457     3.9457     0.0000
  3 C      5.9990     6.0000     0.0010     3.9347     3.9347     0.0000
  4 C      5.9787     6.0000     0.0213     3.9866     3.9866     0.0000
  5 C      5.8482     6.0000     0.1518     3.9069     3.9069     0.0000
  6 C      5.8983     6.0000     0.1017     4.2080     4.2080    -0.0000
  7 O      8.3008     8.0000    -0.3008     2.0929     2.0929     0.0000
  8 C      6.1576     6.0000    -0.1576     4.2583     4.2583    -0.0000
  9 C      5.9236     6.0000     0.0764     3.9379     3.9379     0.0000
 10 C      5.9437     6.0000     0.0563     3.9345     3.9345     0.0000
 11 H      1.0001     1.0000    -0.0001     0.9792     0.9792    -0.0000
 12 H      1.0050     1.0000    -0.0050     1.0207     1.0207    -0.0000
 13 H      1.0004     1.0000    -0.0004     0.9989     0.9989    -0.0000
 14 H      1.0171     1.0000    -0.0171     0.9883     0.9883     0.0000
 15 H      1.0303     1.0000    -0.0303     0.9856     0.9856     0.0000
 16 H      1.0258     1.0000    -0.0258     0.9814     0.9814     0.0000
 17 H      1.0225     1.0000    -0.0225     0.9750     0.9750     0.0000
 18 H      1.0020     1.0000    -0.0020     0.9745     0.9745     0.0000
 19 H      1.0327     1.0000    -0.0327     1.0346     1.0346     0.0000
 20 H      1.0149     1.0000    -0.0149     0.9799     0.9799     0.0000
 21 H      0.8354     1.0000     0.1646     1.0179     1.0179     0.0000
 22 H      1.0078     1.0000    -0.0078     0.9757     0.9757    -0.0000
 23 H      1.0028     1.0000    -0.0028     0.9938     0.9938     0.0000
 24 H      0.9898     1.0000     0.0102     0.9991     0.9991    -0.0000
 25 H      0.9899     1.0000     0.0101     0.9848     0.9848    -0.0000
 26 H      0.9937     1.0000     0.0063     0.9821     0.9821     0.0000
 27 H      0.9990     1.0000     0.0010     0.9927     0.9927    -0.0000
 28 H      0.9816     1.0000     0.0184     0.9974     0.9974    -0.0000

  Mayer bond orders larger than 0.100000
B(  0-C ,  1-C ) :   1.0846 B(  0-C , 11-H ) :   0.9586 B(  0-C , 12-H ) :   0.9461 
B(  0-C , 13-H ) :   0.9573 B(  1-C ,  2-C ) :   0.9754 B(  1-C ,  6-C ) :   1.0595 
B(  1-C , 14-H ) :   0.8719 B(  2-C ,  3-C ) :   1.8957 B(  2-C , 15-H ) :   0.9798 
B(  3-C ,  4-C ) :   1.0253 B(  3-C , 16-H ) :   0.9694 B(  4-C ,  5-C ) :   1.0297 
B(  4-C ,  8-C ) :   1.0173 B(  4-C , 17-H ) :   0.8787 B(  5-C ,  6-C ) :   1.0804 
B(  5-C , 18-H ) :   0.9053 B(  5-C , 19-H ) :   0.8947 B(  6-C ,  7-O ) :   1.0271 
B(  6-C , 20-H ) :   0.8769 B(  7-O , 21-H ) :   0.9634 B(  8-C ,  9-C ) :   1.0834 
B(  8-C , 10-C ) :   1.0791 B(  8-C , 22-H ) :   0.9311 B(  9-C , 23-H ) :   0.9595 
B(  9-C , 24-H ) :   0.9622 B(  9-C , 25-H ) :   0.9608 B( 10-C , 26-H ) :   0.9562 
B( 10-C , 27-H ) :   0.9537 B( 10-C , 28-H ) :   0.9603 

-------
TIMINGS
-------

Total SCF time: 0 days 0 hours 1 min 39 sec 

Total time                  ....      99.770 sec
Sum of individual times     ....      99.474 sec  ( 99.7%)

Fock matrix formation       ....      91.436 sec  ( 91.6%)
  Split-RI-J                ....       4.693 sec  (  5.1% of F)
  Chain of spheres X        ....      80.167 sec  ( 87.7% of F)
  XC integration            ....       6.566 sec  (  7.2% of F)
    Basis function eval.    ....       2.504 sec  ( 38.1% of XC)
    Density eval.           ....       2.098 sec  ( 32.0% of XC)
    XC-Functional eval.     ....       0.498 sec  (  7.6% of XC)
    XC-Potential eval.      ....       1.216 sec  ( 18.5% of XC)
Diagonalization             ....       0.029 sec  (  0.0%)
Density matrix formation    ....       0.004 sec  (  0.0%)
Population analysis         ....       0.015 sec  (  0.0%)
Initial guess               ....       0.017 sec  (  0.0%)
Orbital Transformation      ....       0.000 sec  (  0.0%)
Orbital Orthonormalization  ....       0.014 sec  (  0.0%)
DIIS solution               ....       0.005 sec  (  0.0%)
SOSCF solution              ....       0.011 sec  (  0.0%)
Grid generation             ....       7.956 sec  (  8.0%)

Maximum memory used throughout the entire SCF-calculation: 96.9 MB

-------------------------   --------------------
FINAL SINGLE POINT ENERGY      -466.414883415498
-------------------------   --------------------


                            ***************************************
                            *     ORCA property calculations      *
                            ***************************************

                                    ---------------------
                                    Active property flags
                                    ---------------------
   (+) Dipole Moment
   (+) Polarizability


------------------------------------------------------------------------------
                       ORCA ELECTRIC PROPERTIES CALCULATION
------------------------------------------------------------------------------

Dipole Moment Calculation                       ... on
Quadrupole Moment Calculation                   ... off
Polarizability Calculation                      ... Analytic (CP-SCF)
GBWName                                         ... 9.gbw
Electron density                                ... 9.scfp
The origin for moment calculation is the CENTER OF MASS  = (-0.423054,  0.082645 -0.134502)

-------------
DIPOLE MOMENT
-------------
                                X             Y             Z
Electronic contribution:     -5.44944       0.49490      -1.87561
Nuclear contribution   :      5.98224      -0.61939       2.18691
                        -----------------------------------------
Total Dipole Moment    :      0.53280      -0.12449       0.31130
                        -----------------------------------------
Magnitude (a.u.)       :      0.62950
Magnitude (Debye)      :      1.60007



--------------------
Rotational spectrum 
--------------------
 
Rotational constants in cm-1:     0.061666     0.026209     0.021209 
Rotational constants in MHz :  1848.687280   785.738866   635.823555 

 Dipole components along the rotational axes: 
x,y,z [a.u.] :    -0.528664    -0.067305     0.335054 
x,y,z [Debye]:    -1.343756    -0.171075     0.851639 

 
Transforming and storing MO dipole integrals   ... done

                ... starting polarizability calculation

The origin for moment calculation is the CENTER OF MASS  = (-0.423054,  0.082645 -0.134502)
Opening the Dipole integral file               ... (9.dmo.tmp) done
Reading Dipole-MO integrals                    ... done
Solving CP-SCF equations                       ... 
------------------------------------------------------------------------------
                           ORCA CP-SCF CALCULATION
------------------------------------------------------------------------------

Input orbitals are from        ... 9.gbw
Input Perturbation             ... 9.cpv.tmp
Wavefunction output            ... 9.cpu.tmp
Perturbation mode              ... Real perturbation (singlet)
Solver                         ... POPLE
Max. number of iterations      ... 64
Convergence tolerance          ... 1.000e-04
Integral handling              ... Direct
DFT GridXC                     ... 1
COSX GridX                     ... 1
COSX IntAccX                   ... 3.067
COSX Algorithm                 ... Auto
Number of perturbations        ... 3
Number of operators            ... 1
Orbital ranges used for CP-SCF:
 Operator 0:  Orbitals   0... 42  to  43...243
Variables per perturbation     ... 8643
DFT calculation                         ... on
XC functional terms                     ... on
Exchange functional (SCF)               ... B88
Exchange functional (CP-SCF)            ... B88
   X-Alpha parameter    XAlpha (SCF)    ...  0.666667
   X-Alpha parameter    XAlpha (CP-SCF) ...  0.666667
   Becke's b parameter  XBeta (SCF)     ...  0.004200
   Becke's b parameter  XBeta (CP-SCF)  ...  0.004200
Correlation functional (SCF)            ... LYP
Correlation functional (CP-SCF)         ... LYP
 LDA part of GGA corr.  LDAOpt (SCF)    ... VWN-5
 LDA part of GGA corr.  LDAOpt (CP-SCF) ... VWN-5
Hybrid DFT                              ... on
   Exchange mixing (SCF)                ...  0.200
   Exchange mixing (CP-SCF)             ...  0.200
   GGA exch. scaling(SCF)               ...  0.720
   GGA exch. scaling (CP-SCF)           ...  0.720
   GGA corr. scaling (SCF)              ...  0.810
   GGA corr. scaling (CP-SCF)           ...  0.810

CP-SCF GRID
-----------

General Integration Accuracy     IntAcc      ... 3.467
Radial Grid Type                 RadialGrid  ... OptM3 with GC (2021)
Angular Grid (max. ang.)         AngularGrid ... 1 (Lebedev-50)
Angular grid pruning method      GridPruning ... 4 (adaptive)
Weight generation scheme         WeightScheme... Becke
Basis function cutoff            BFCut       ... 1.0000e-11
Integration weight cutoff        WCut        ... 1.0000e-14
Angular grids for H and He will be reduced by one unit
Partially contracted basis set               ... off
Rotationally invariant grid construction     ... off

Total number of grid points                  ...    17010
Total number of batches                      ...      282
Average number of points per batch           ...       60
Average number of grid points per atom       ...      587

CP-SCF GRIDX
------------

General Integration Accuracy     IntAcc      ... 3.067
Radial Grid Type                 RadialGrid  ... OptM3 with GC (2021)
Angular Grid (max. ang.)         AngularGrid ... 1 (Lebedev-50)
Angular grid pruning method      GridPruning ... 4 (adaptive)
Weight generation scheme         WeightScheme... Becke
Basis function cutoff            BFCut       ... 1.0000e-11
Integration weight cutoff        WCut        ... 1.0000e-14
Angular grids for H and He will be reduced by one unit
Partially contracted basis set               ... on
Rotationally invariant grid construction     ... off

Total number of grid points                  ...     8122
Total number of batches                      ...      142
Average number of points per batch           ...       57
Average number of grid points per atom       ...      280

Recalculating density on grid  ... done
Calculating the xc-kernel      ... done
Memory available               ... 983.8 MB
Memory needed per perturbation ...  11.1 MB
Perturbations treated per batch... 3
Number of batches              ... 1
     CP-SCF ITERATION   0:   6.8494e+00 (  11.8 sec   0/  3 done)
     CP-SCF ITERATION   1:   8.2528e-01 (  11.7 sec   0/  3 done)
     CP-SCF ITERATION   2:   1.9463e-01 (  12.2 sec   0/  3 done)
     CP-SCF ITERATION   3:   5.8512e-02 (  12.5 sec   0/  3 done)
     CP-SCF ITERATION   4:   1.3982e-02 (  13.1 sec   0/  3 done)
     CP-SCF ITERATION   5:   5.0777e-03 (  13.0 sec   0/  3 done)
     CP-SCF ITERATION   6:   1.1067e-03 (  12.3 sec   0/  3 done)
     CP-SCF ITERATION   7:   3.7183e-04 (  12.3 sec   0/  3 done)
     CP-SCF ITERATION   8:   7.7705e-05 (  11.9 sec   3/  3 done)
                    *** THE CP-SCF HAS CONVERGED ***
done
Reading CP-SCF coefficients                    ... done
Doing the polarizability tensor                ... done
Cleaning up                                    ... done

-------------------------
THE POLARIZABILITY TENSOR
-------------------------

The raw cartesian tensor (atomic units):
  126.68440      2.75378     -6.17219  
    2.75378    103.24026      1.35393  
   -6.17219      1.35393     92.75963  
diagonalized tensor: 
   91.39067    103.27270    128.02094  

    0.18182     -0.07123     -0.98075  
   -0.15324      0.98314     -0.09982  
    0.97132      0.16844      0.16784  

Isotropic polarizability : 107.56143


Timings for individual modules:

Sum of individual times         ...      212.322 sec (=   3.539 min)
GTO integral calculation        ...        0.452 sec (=   0.008 min)   0.2 %
SCF iterations                  ...       99.812 sec (=   1.664 min)  47.0 %
Solution of CP-SCF eqns.        ...      112.059 sec (=   1.868 min)  52.8 %
                             ****ORCA TERMINATED NORMALLY****
TOTAL RUN TIME: 0 days 0 hours 3 minutes 32 seconds 700 msec
