
                                 *****************
                                 * O   R   C   A *
                                 *****************

                                            #,                                       
                                            ###                                      
                                            ####                                     
                                            #####                                    
                                            ######                                   
                                           ########,                                 
                                     ,,################,,,,,                         
                               ,,#################################,,                 
                          ,,##########################################,,             
                       ,#########################################, ''#####,          
                    ,#############################################,,   '####,        
                  ,##################################################,,,,####,       
                ,###########''''           ''''###############################       
              ,#####''   ,,,,##########,,,,          '''####'''          '####       
            ,##' ,,,,###########################,,,                        '##       
           ' ,,###''''                  '''############,,,                           
         ,,##''                                '''############,,,,        ,,,,,,###''
      ,#''                                            '''#######################'''  
     '                                                          ''''####''''         
             ,#######,   #######,   ,#######,      ##                                
            ,#'     '#,  ##    ##  ,#'     '#,    #''#        ######   ,####,        
            ##       ##  ##   ,#'  ##            #'  '#       #        #'  '#        
            ##       ##  #######   ##           ,######,      #####,   #    #        
            '#,     ,#'  ##    ##  '#,     ,#' ,#      #,         ##   #,  ,#        
             '#######'   ##     ##  '#######'  #'      '#     #####' # '####'        



                  #######################################################
                  #                        -***-                        #
                  #          Department of theory and spectroscopy      #
                  #    Directorship and core code : Frank Neese         #
                  #        Max Planck Institute fuer Kohlenforschung    #
                  #                Kaiser Wilhelm Platz 1               #
                  #                 D-45470 Muelheim/Ruhr               #
                  #                      Germany                        #
                  #                                                     #
                  #                  All rights reserved                #
                  #                        -***-                        #
                  #######################################################


                         Program Version 5.0.3 -  RELEASE  -


 With contributions from (in alphabetic order):
   Daniel Aravena         : Magnetic Suceptibility
   Michael Atanasov       : Ab Initio Ligand Field Theory (pilot matlab implementation)
   Alexander A. Auer      : GIAO ZORA, VPT2 properties, NMR spectrum
   Ute Becker             : Parallelization
   Giovanni Bistoni       : ED, misc. LED, open-shell LED, HFLD
   Martin Brehm           : Molecular dynamics
   Dmytro Bykov           : SCF Hessian
   Vijay G. Chilkuri      : MRCI spin determinant printing, contributions to CSF-ICE
   Dipayan Datta          : RHF DLPNO-CCSD density
   Achintya Kumar Dutta   : EOM-CC, STEOM-CC
   Dmitry Ganyushin       : Spin-Orbit,Spin-Spin,Magnetic field MRCI
   Miquel Garcia          : C-PCM and meta-GGA Hessian, CC/C-PCM, Gaussian charge scheme
   Yang Guo               : DLPNO-NEVPT2, F12-NEVPT2, CIM, IAO-localization
   Andreas Hansen         : Spin unrestricted coupled pair/coupled cluster methods
   Benjamin Helmich-Paris : MC-RPA, TRAH-SCF, COSX integrals
   Lee Huntington         : MR-EOM, pCC
   Robert Izsak           : Overlap fitted RIJCOSX, COSX-SCS-MP3, EOM
   Marcus Kettner         : VPT2
   Christian Kollmar      : KDIIS, OOCD, Brueckner-CCSD(T), CCSD density, CASPT2, CASPT2-K
   Simone Kossmann        : Meta GGA functionals, TD-DFT gradient, OOMP2, MP2 Hessian
   Martin Krupicka        : Initial AUTO-CI
   Lucas Lang             : DCDCAS
   Marvin Lechner         : AUTO-CI (C++ implementation), FIC-MRCC
   Dagmar Lenk            : GEPOL surface, SMD
   Dimitrios Liakos       : Extrapolation schemes; Compound Job, initial MDCI parallelization
   Dimitrios Manganas     : Further ROCIS development; embedding schemes
   Dimitrios Pantazis     : SARC Basis sets
   Anastasios Papadopoulos: AUTO-CI, single reference methods and gradients
   Taras Petrenko         : DFT Hessian,TD-DFT gradient, ASA, ECA, R-Raman, ABS, FL, XAS/XES, NRVS
   Peter Pinski           : DLPNO-MP2, DLPNO-MP2 Gradient
   Christoph Reimann      : Effective Core Potentials
   Marius Retegan         : Local ZFS, SOC
   Christoph Riplinger    : Optimizer, TS searches, QM/MM, DLPNO-CCSD(T), (RO)-DLPNO pert. Triples
   Tobias Risthaus        : Range-separated hybrids, TD-DFT gradient, RPA, STAB
   Michael Roemelt        : Original ROCIS implementation
   Masaaki Saitow         : Open-shell DLPNO-CCSD energy and density
   Barbara Sandhoefer     : DKH picture change effects
   Avijit Sen             : IP-ROCIS
   Kantharuban Sivalingam : CASSCF convergence, NEVPT2, FIC-MRCI
   Bernardo de Souza      : ESD, SOC TD-DFT
   Georgi Stoychev        : AutoAux, RI-MP2 NMR, DLPNO-MP2 response
   Willem Van den Heuvel  : Paramagnetic NMR
   Boris Wezisla          : Elementary symmetry handling
   Frank Wennmohs         : Technical directorship


 We gratefully acknowledge several colleagues who have allowed us to
 interface, adapt or use parts of their codes:
   Stefan Grimme, W. Hujo, H. Kruse, P. Pracht,  : VdW corrections, initial TS optimization,
                  C. Bannwarth, S. Ehlert          DFT functionals, gCP, sTDA/sTD-DF
   Ed Valeev, F. Pavosevic, A. Kumar             : LibInt (2-el integral package), F12 methods
   Garnet Chan, S. Sharma, J. Yang, R. Olivares  : DMRG
   Ulf Ekstrom                                   : XCFun DFT Library
   Mihaly Kallay                                 : mrcc  (arbitrary order and MRCC methods)
   Jiri Pittner, Ondrej Demel                    : Mk-CCSD
   Frank Weinhold                                : gennbo (NPA and NBO analysis)
   Christopher J. Cramer and Donald G. Truhlar   : smd solvation model
   Lars Goerigk                                  : TD-DFT with DH, B97 family of functionals
   V. Asgeirsson, H. Jonsson                     : NEB implementation
   FAccTs GmbH                                   : IRC, NEB, NEB-TS, DLPNO-Multilevel, CI-OPT
                                                   MM, QMMM, 2- and 3-layer-ONIOM, Crystal-QMMM,
                                                   LR-CPCM, SF, NACMEs, symmetry and pop. for TD-DFT,
                                                   nearIR, NL-DFT gradient (VV10), updates on ESD,
                                                   ML-optimized integration grids
   S Lehtola, MJT Oliveira, MAL Marques          : LibXC Library
   Liviu Ungur et al                             : ANISO software


 Your calculation uses the libint2 library for the computation of 2-el integrals
 For citations please refer to: http://libint.valeyev.net

 Your ORCA version has been built with support for libXC version: 5.1.0
 For citations please refer to: https://tddft.org/programs/libxc/

 This ORCA versions uses:
   CBLAS   interface :  Fast vector & matrix operations
   LAPACKE interface :  Fast linear algebra routines
   SCALAPACK package :  Parallel linear algebra routines
   Shared memory     :  Shared parallel matrices
   BLAS/LAPACK       :  OpenBLAS 0.3.15  USE64BITINT DYNAMIC_ARCH NO_AFFINITY Zen SINGLE_THREADED
        Core in use  :  Zen
   Copyright (c) 2011-2014, The OpenBLAS Project




***************************************
The coordinates will be read from file: _77.xyz
***************************************


================================================================================

----- Orbital basis set information -----
Your calculation utilizes the basis: def2-SVP
   F. Weigend and R. Ahlrichs, Phys. Chem. Chem. Phys. 7, 3297 (2005).

----- AuxJ basis set information -----
Your calculation utilizes the auxiliary basis: def2/J
   F. Weigend, Phys. Chem. Chem. Phys. 8, 1057 (2006).

================================================================================
                                        WARNINGS
                       Please study these warnings very carefully!
================================================================================

WARNING: Old DensityContainer found on disk!
         Will remove this file - 
         If you want to keep old densities, please start your calculation with a different basename. 


INFO   : the flag for use of the SHARK integral package has been found!

================================================================================
                                       INPUT FILE
================================================================================
NAME = 77.inp
|  1> ! B3LYP DEF2-SVP TightSCF
|  2> %elprop
|  3> Polar 1
|  4> end
|  5> * xyzfile 0 1 _77.xyz
|  6> 
|  7>                          ****END OF INPUT****
================================================================================

                       ****************************
                       * Single Point Calculation *
                       ****************************

---------------------------------
CARTESIAN COORDINATES (ANGSTROEM)
---------------------------------
  C     -4.352173    2.921821   -0.431186
  C     -3.959665    1.473428   -0.382062
  C     -4.920550    0.484361   -0.460866
  C     -4.557716   -0.837997   -0.415833
  C     -3.248220   -1.192327   -0.293148
  C     -2.256049   -0.244728   -0.210734
  C     -2.660646    1.109787   -0.259974
  O     -0.969641   -0.475331   -0.088855
  C      0.041413   -1.282786    0.114290
  C     -0.069701   -2.636114    0.383195
  C      1.063542   -3.398026    0.580820
  C      2.291054   -2.820535    0.509767
  C      2.480474   -1.480074    0.244324
  C      1.336670   -0.703118    0.047571
  C      1.394744    0.731769   -0.105759
  C      2.802043    1.152158   -0.333828
  C      2.710663    2.475860   -0.660299
  C      1.242678    2.774781   -0.852964
  O      0.673273    1.442967   -0.989129
  C      3.912621    3.126765   -0.790047
  C      5.120792    2.440832   -0.595424
  C      5.105087    1.087216   -0.270292
  C      3.901648    0.389739   -0.130557
  O      3.794017   -0.962324    0.169542
  C      0.909463   -4.844300    0.868971
  O     -5.517925   -1.855956   -0.494273
  H     -3.829009    3.433067    0.399955
  H     -5.440140    3.026861   -0.347443
  H     -4.022128    3.336222   -1.419898
  H     -5.961302    0.762845   -0.558308
  H     -2.985602   -2.269038   -0.268761
  H     -1.882057    1.880135   -0.192676
  H     -1.048075   -3.092658    0.444974
  H      3.184652   -3.425844    0.666622
  H      1.091186    1.149621    0.946491
  H      0.788992    3.305535   -0.033055
  H      1.094564    3.225356   -1.844412
  H      3.897049    4.176678   -1.045305
  H      6.020655    3.003208   -0.708596
  H      6.028757    0.552807   -0.120399
  H      0.985526   -5.022471    1.949195
  H     -0.080316   -5.235714    0.541252
  H      1.696318   -5.431786    0.351280
  H     -5.806969   -2.252689   -1.378100

----------------------------
CARTESIAN COORDINATES (A.U.)
----------------------------
  NO LB      ZA    FRAG     MASS         X           Y           Z
   0 C     6.0000    0    12.011   -8.224415    5.521442   -0.814823
   1 C     6.0000    0    12.011   -7.482682    2.784375   -0.721993
   2 C     6.0000    0    12.011   -9.298492    0.915310   -0.870911
   3 C     6.0000    0    12.011   -8.612835   -1.583585   -0.785810
   4 C     6.0000    0    12.011   -6.138246   -2.253171   -0.553969
   5 C     6.0000    0    12.011   -4.263315   -0.462469   -0.398230
   6 C     6.0000    0    12.011   -5.027892    2.097193   -0.491280
   7 O     8.0000    0    15.999   -1.832356   -0.898245   -0.167912
   8 C     6.0000    0    12.011    0.078259   -2.424114    0.215977
   9 C     6.0000    0    12.011   -0.131716   -4.981534    0.724134
  10 C     6.0000    0    12.011    2.009803   -6.421339    1.097591
  11 C     6.0000    0    12.011    4.329465   -5.330039    0.963320
  12 C     6.0000    0    12.011    4.687417   -2.796935    0.461705
  13 C     6.0000    0    12.011    2.525940   -1.328700    0.089896
  14 C     6.0000    0    12.011    2.635684    1.382843   -0.199856
  15 C     6.0000    0    12.011    5.295094    2.177263   -0.630843
  16 C     6.0000    0    12.011    5.122411    4.678697   -1.247784
  17 C     6.0000    0    12.011    2.348321    5.243576   -1.611868
  18 O     8.0000    0    15.999    1.272302    2.726812   -1.869183
  19 C     6.0000    0    12.011    7.393782    5.908730   -1.492972
  20 C     6.0000    0    12.011    9.676894    4.612504   -1.125188
  21 C     6.0000    0    12.011    9.647216    2.054540   -0.510778
  22 C     6.0000    0    12.011    7.373046    0.736500   -0.246717
  23 O     8.0000    0    15.999    7.169653   -1.818529    0.320388
  24 C     6.0000    0    12.011    1.718636   -9.154400    1.642117
  25 O     8.0000    0    15.999  -10.427367   -3.507249   -0.934041
  26 H     1.0000    0     1.008   -7.235778    6.487556    0.755805
  27 H     1.0000    0     1.008  -10.280375    5.719938   -0.656572
  28 H     1.0000    0     1.008   -7.600720    6.304546   -2.683218
  29 H     1.0000    0     1.008  -11.265228    1.441568   -1.055049
  30 H     1.0000    0     1.008   -5.641970   -4.287860   -0.507885
  31 H     1.0000    0     1.008   -3.556572    3.552940   -0.364105
  32 H     1.0000    0     1.008   -1.980575   -5.844277    0.840879
  33 H     1.0000    0     1.008    6.018120   -6.473907    1.259733
  34 H     1.0000    0     1.008    2.062043    2.172469    1.788609
  35 H     1.0000    0     1.008    1.490979    6.246556   -0.062465
  36 H     1.0000    0     1.008    2.068426    6.095040   -3.485434
  37 H     1.0000    0     1.008    7.364355    7.892778   -1.975340
  38 H     1.0000    0     1.008   11.377389    5.675241   -1.339052
  39 H     1.0000    0     1.008   11.392700    1.044654   -0.227521
  40 H     1.0000    0     1.008    1.862374   -9.491095    3.683445
  41 H     1.0000    0     1.008   -0.151775   -9.894066    1.022818
  42 H     1.0000    0     1.008    3.205576  -10.264588    0.663823
  43 H     1.0000    0     1.008  -10.973581   -4.256965   -2.604232

--------------------------------
INTERNAL COORDINATES (ANGSTROEM)
--------------------------------
 C      0   0   0     0.000000000000     0.00000000     0.00000000
 C      1   0   0     1.501438636738     0.00000000     0.00000000
 C      2   1   0     1.381218152259   120.46765771     0.00000000
 C      3   2   1     1.371971997822   120.28718397   179.98911478
 C      4   3   2     1.362123758012   120.52562901     0.00000000
 C      5   4   3     1.374459612152   121.33427354     0.00000000
 C      2   1   3     1.354470604696   120.84099564   180.00027693
 O      6   5   4     1.312584388416   126.29269108   179.87189047
 C      8   6   5     1.309763970708   151.55225692   350.73336256
 C      9   8   6     1.384251745747   124.81184030   357.81694606
 C     10   9   8     1.379784488034   120.11629906   179.94518355
 C     11  10   9     1.358429274579   119.99507220   359.90779906
 C     12  11  10     1.379556310982   123.17553314     0.00000000
 C     13  12  11     1.396660287744   117.07714126     0.20195445
 C     14  13  12     1.444224145050   122.32520318   173.74452488
 C     15  14  13     1.486348833714   109.59491919    12.97103295
 C     16  15  14     1.366426215734   104.31971470   171.25243599
 C     17  16  15     1.510448121152   106.68951943   350.61170288
 O     15  14  13     1.344122597067   125.02170817   138.66863255
 C     17  16  15     1.373031280158   115.04161348   173.81279486
 C     20  17  16     1.402875389284   120.59758918     0.14810044
 C     21  20  17     1.392204632913   119.87301591     0.12890418
 C     16  15  14     1.353415304711   125.93609407   345.89501884
 O     23  16  15     1.389142972459   121.18405155     8.15730727
 C     11  10   9     1.482727156330   118.75774523   179.90743705
 O      4   3   2     1.401568650820   121.13232388   179.99800117
 H      1   2   3     1.107189417080   107.29859069   132.07317654
 H      1   2   3     1.096229211770   110.44974407    10.28518554
 H      1   2   3     1.121699295609   107.95725190   251.31866685
 H      3   2   1     1.081763840736   119.34709498     0.00000000
 H      5   4   3     1.108543872480   118.84177870   180.54565075
 H      7   2   1     1.097344928830   119.83665599     0.18915137
 H     10   9   8     1.081417936162   119.76604390   359.50024277
 H     12  11  10     1.090651118420   119.79526915   179.99387672
 H     15  14  13     1.172167998099   104.38600946   259.36383279
 H     18  17  16     1.076931550004   114.19571367   103.63689904
 H     18  17  16     1.099056288060   109.09740630   234.33637101
 H     20  17  16     1.080609291704   118.05407669   180.13312831
 H     21  20  17     1.067158884951   116.98905556   180.12713239
 H     22  21  20     1.077602505393   120.33093335   179.92187045
 H     25  11  10     1.097458142886   110.02571510   261.42567203
 H     25  11  10     1.113672811556   112.20919065    20.57046239
 H     25  11  10     1.110083133239   110.60523659   141.06538047
 H     26   4   3     1.010986485149   121.99284231    90.00024599

---------------------------
INTERNAL COORDINATES (A.U.)
---------------------------
 C      0   0   0     0.000000000000     0.00000000     0.00000000
 C      1   0   0     2.837307830322     0.00000000     0.00000000
 C      2   1   0     2.610124038970   120.46765771     0.00000000
 C      3   2   1     2.592651339293   120.28718397   179.98911478
 C      4   3   2     2.574040863150   120.52562901     0.00000000
 C      5   4   3     2.597352249104   121.33427354     0.00000000
 C      2   1   3     2.559578499322   120.84099564   180.00027693
 O      6   5   4     2.480425021767   126.29269108   179.87189047
 C      8   6   5     2.475095204716   151.55225692   350.73336256
 C      9   8   6     2.615856699865   124.81184030   357.81694606
 C     10   9   8     2.607414806216   120.11629906   179.94518355
 C     11  10   9     2.567059301256   119.99507220   359.90779906
 C     12  11  10     2.606983614078   123.17553314     0.00000000
 C     13  12  11     2.639305445960   117.07714126     0.20195445
 C     14  13  12     2.729188110141   122.32520318   173.74452488
 C     15  14  13     2.808792235193   109.59491919    12.97103295
 C     16  15  14     2.582171329948   104.31971470   171.25243599
 C     17  16  15     2.854333288473   106.68951943   350.61170288
 O     15  14  13     2.540023598871   125.02170817   138.66863255
 C     17  16  15     2.594653092806   115.04161348   173.81279486
 C     20  17  16     2.651050285765   120.59758918     0.14810044
 C     21  20  17     2.630885478582   119.87301591     0.12890418
 C     16  15  14     2.557584271362   125.93609407   345.89501884
 O     23  16  15     2.625099778808   121.18405155     8.15730727
 C     11  10   9     2.801948256791   118.75774523   179.90743705
 O      4   3   2     2.648580907940   121.13232388   179.99800117
 H      1   2   3     2.092284776656   107.29859069   132.07317654
 H      1   2   3     2.071572990250   110.44974407    10.28518554
 H      1   2   3     2.119704473314   107.95725190   251.31866685
 H      3   2   1     2.044237400570   119.34709498     0.00000000
 H      5   4   3     2.094844326425   118.84177870   180.54565075
 H      7   2   1     2.073681389936   119.83665599     0.18915137
 H     10   9   8     2.043583735657   119.76604390   359.50024277
 H     12  11  10     2.061031921468   119.79526915   179.99387672
 H     15  14  13     2.215076499354   104.38600946   259.36383279
 H     18  17  16     2.035105694486   114.19571367   103.63689904
 H     18  17  16     2.076915390198   109.09740630   234.33637101
 H     20  17  16     2.042055619091   118.05407669   180.13312831
 H     21  20  17     2.016638033937   116.98905556   180.12713239
 H     22  21  20     2.036373616421   120.33093335   179.92187045
 H     25  11  10     2.073895333496   110.02571510   261.42567203
 H     25  11  10     2.104536616634   112.20919065    20.57046239
 H     25  11  10     2.097753107707   110.60523659   141.06538047
 H     26   4   3     1.910487582027   121.99284231    90.00024599

---------------------
BASIS SET INFORMATION
---------------------
There are 3 groups of distinct atoms

 Group   1 Type C   : 7s4p1d contracted to 3s2p1d pattern {511/31/1}
 Group   2 Type O   : 7s4p1d contracted to 3s2p1d pattern {511/31/1}
 Group   3 Type H   : 4s1p contracted to 2s1p pattern {31/1}

Atom   0C    basis set group =>   1
Atom   1C    basis set group =>   1
Atom   2C    basis set group =>   1
Atom   3C    basis set group =>   1
Atom   4C    basis set group =>   1
Atom   5C    basis set group =>   1
Atom   6C    basis set group =>   1
Atom   7O    basis set group =>   2
Atom   8C    basis set group =>   1
Atom   9C    basis set group =>   1
Atom  10C    basis set group =>   1
Atom  11C    basis set group =>   1
Atom  12C    basis set group =>   1
Atom  13C    basis set group =>   1
Atom  14C    basis set group =>   1
Atom  15C    basis set group =>   1
Atom  16C    basis set group =>   1
Atom  17C    basis set group =>   1
Atom  18O    basis set group =>   2
Atom  19C    basis set group =>   1
Atom  20C    basis set group =>   1
Atom  21C    basis set group =>   1
Atom  22C    basis set group =>   1
Atom  23O    basis set group =>   2
Atom  24C    basis set group =>   1
Atom  25O    basis set group =>   2
Atom  26H    basis set group =>   3
Atom  27H    basis set group =>   3
Atom  28H    basis set group =>   3
Atom  29H    basis set group =>   3
Atom  30H    basis set group =>   3
Atom  31H    basis set group =>   3
Atom  32H    basis set group =>   3
Atom  33H    basis set group =>   3
Atom  34H    basis set group =>   3
Atom  35H    basis set group =>   3
Atom  36H    basis set group =>   3
Atom  37H    basis set group =>   3
Atom  38H    basis set group =>   3
Atom  39H    basis set group =>   3
Atom  40H    basis set group =>   3
Atom  41H    basis set group =>   3
Atom  42H    basis set group =>   3
Atom  43H    basis set group =>   3
---------------------------------
AUXILIARY/J BASIS SET INFORMATION
---------------------------------
There are 3 groups of distinct atoms

 Group   1 Type C   : 12s5p4d2f1g contracted to 6s4p3d1f1g pattern {711111/2111/211/2/1}
 Group   2 Type O   : 12s5p4d2f1g contracted to 6s4p3d1f1g pattern {711111/2111/211/2/1}
 Group   3 Type H   : 5s2p1d contracted to 3s1p1d pattern {311/2/1}

Atom   0C    basis set group =>   1
Atom   1C    basis set group =>   1
Atom   2C    basis set group =>   1
Atom   3C    basis set group =>   1
Atom   4C    basis set group =>   1
Atom   5C    basis set group =>   1
Atom   6C    basis set group =>   1
Atom   7O    basis set group =>   2
Atom   8C    basis set group =>   1
Atom   9C    basis set group =>   1
Atom  10C    basis set group =>   1
Atom  11C    basis set group =>   1
Atom  12C    basis set group =>   1
Atom  13C    basis set group =>   1
Atom  14C    basis set group =>   1
Atom  15C    basis set group =>   1
Atom  16C    basis set group =>   1
Atom  17C    basis set group =>   1
Atom  18O    basis set group =>   2
Atom  19C    basis set group =>   1
Atom  20C    basis set group =>   1
Atom  21C    basis set group =>   1
Atom  22C    basis set group =>   1
Atom  23O    basis set group =>   2
Atom  24C    basis set group =>   1
Atom  25O    basis set group =>   2
Atom  26H    basis set group =>   3
Atom  27H    basis set group =>   3
Atom  28H    basis set group =>   3
Atom  29H    basis set group =>   3
Atom  30H    basis set group =>   3
Atom  31H    basis set group =>   3
Atom  32H    basis set group =>   3
Atom  33H    basis set group =>   3
Atom  34H    basis set group =>   3
Atom  35H    basis set group =>   3
Atom  36H    basis set group =>   3
Atom  37H    basis set group =>   3
Atom  38H    basis set group =>   3
Atom  39H    basis set group =>   3
Atom  40H    basis set group =>   3
Atom  41H    basis set group =>   3
Atom  42H    basis set group =>   3
Atom  43H    basis set group =>   3

Checking for AutoStart:
The File: 77.gbw exists
Trying to determine its content:
     ... Fine, the file contains calculation information
     ... Fine, the calculation information was read
     ... Fine, the file contains a basis set
     ... Fine, the basis set was read
     ... Fine, the file contains a geometry
     ... Fine, the geometry was read
     ... Fine, the file contains a set of orbitals
     ... Fine, the orbitals can be read
     => possible old guess file was deleted
     => GBW file was renamed to GES file
     => GES file is set as startup file
     => Guess is set to MORead
     ... now leaving AutoStart

------------------------------------------------------------------------------
                           ORCA GTO INTEGRAL CALCULATION
                           -- RI-GTO INTEGRALS CHOSEN --
------------------------------------------------------------------------------
------------------------------------------------------------------------------
                   ___                                                        
                  /   \      - P O W E R E D   B Y -                         
                 /     \                                                     
                 |  |  |   _    _      __       _____    __    __             
                 |  |  |  | |  | |    /  \     |  _  \  |  |  /  |          
                  \  \/   | |  | |   /    \    | | | |  |  | /  /          
                 / \  \   | |__| |  /  /\  \   | |_| |  |  |/  /          
                |  |  |   |  __  | /  /__\  \  |    /   |      \           
                |  |  |   | |  | | |   __   |  |    \   |  |\   \          
                \     /   | |  | | |  |  |  |  | |\  \  |  | \   \       
                 \___/    |_|  |_| |__|  |__|  |_| \__\ |__|  \__/        
                                                                              
                      - O R C A' S   B I G   F R I E N D -                    
                                      &                                       
                       - I N T E G R A L  F E E D E R -                       
                                                                              
 v1 FN, 2020, v2 2021                                                         
------------------------------------------------------------------------------


Reading SHARK input file 77.SHARKINP.tmp ... ok
----------------------
SHARK INTEGRAL PACKAGE
----------------------

Number of atoms                             ...     44
Number of basis functions                   ...    454
Number of shells                            ...    210
Maximum angular momentum                    ...      2
Integral batch strategy                     ... SHARK/LIBINT Hybrid
RI-J (if used) integral strategy            ... SPLIT-RIJ (Revised 2003 algorithm where possible)
Printlevel                                  ...      1
Contraction scheme used                     ... SEGMENTED contraction
Coulomb Range Separation                    ... NOT USED
Exchange Range Separation                   ... NOT USED
Finite Nucleus Model                        ... NOT USED
Auxiliary Coulomb fitting basis             ... AVAILABLE
   # of basis functions in Aux-J            ...   1472
   # of shells in Aux-J                     ...    480
   Maximum angular momentum in Aux-J        ...      4
Auxiliary J/K fitting basis                 ... NOT available
Auxiliary Correlation fitting basis         ... NOT available
Auxiliary 'external' fitting basis          ... NOT available
Integral threshold                          ...     2.500000e-11
Primitive cut-off                           ...     2.500000e-12
Primitive pair pre-selection threshold      ...     2.500000e-12

Calculating pre-screening integrals         ... done (  0.2 sec) Dimension = 210
Organizing shell pair data                  ... done (  0.4 sec)
Shell pair information
Total number of shell pairs                 ...     22155
Shell pairs after pre-screening             ...     14879
Total number of primitive shell pairs       ...     81395
Primitive shell pairs kept                  ...     34443
          la=0 lb=0:   4494 shell pairs
          la=1 lb=0:   5532 shell pairs
          la=1 lb=1:   1739 shell pairs
          la=2 lb=0:   1799 shell pairs
          la=2 lb=1:   1131 shell pairs
          la=2 lb=2:    184 shell pairs

Calculating one electron integrals          ... done (  0.3 sec)
Calculating RI/J V-Matrix + Cholesky decomp.... done (  0.3 sec)
Calculating Nuclear repulsion               ... done (  0.0 sec) ENN=   2234.281839999352 Eh

SHARK setup successfully completed in   1.6 seconds

Maximum memory used throughout the entire GTOINT-calculation: 95.1 MB
-------------------------------------------------------------------------------
                                 ORCA SCF
-------------------------------------------------------------------------------

------------
SCF SETTINGS
------------
Hamiltonian:
 Density Functional     Method          .... DFT(GTOs)
 Exchange Functional    Exchange        .... B88
   X-Alpha parameter    XAlpha          ....  0.666667
   Becke's b parameter  XBeta           ....  0.004200
 Correlation Functional Correlation     .... LYP
 LDA part of GGA corr.  LDAOpt          .... VWN-5
 Gradients option       PostSCFGGA      .... off
 Hybrid DFT is turned on
   Fraction HF Exchange ScalHFX         ....  0.200000
   Scaling of DF-GGA-X  ScalDFX         ....  0.720000
   Scaling of DF-GGA-C  ScalDFC         ....  0.810000
   Scaling of DF-LDA-C  ScalLDAC        ....  1.000000
   Perturbative correction              ....  0.000000
   Density functional embedding theory  .... OFF
   NL short-range parameter             ....  4.800000
 RI-approximation to the Coulomb term is turned on
   Number of AuxJ basis functions       .... 1472
   RIJ-COSX (HFX calculated with COS-X)).... on


General Settings:
 Integral files         IntName         .... 77
 Hartree-Fock type      HFTyp           .... RHF
 Total Charge           Charge          ....    0
 Multiplicity           Mult            ....    1
 Number of Electrons    NEL             ....  182
 Basis Dimension        Dim             ....  454
 Nuclear Repulsion      ENuc            ....   2234.2818399994 Eh

Convergence Acceleration:
 DIIS                   CNVDIIS         .... on
   Start iteration      DIISMaxIt       ....    12
   Startup error        DIISStart       ....  0.200000
   # of expansion vecs  DIISMaxEq       ....     5
   Bias factor          DIISBfac        ....   1.050
   Max. coefficient     DIISMaxC        ....  10.000
 Trust-Rad. Augm. Hess. CNVTRAH         .... auto
   Auto Start mean grad. ratio tolernc. ....  1.125000
   Auto Start start iteration           ....     1
   Auto Start num. interpolation iter.  ....    10
   Max. Number of Micro iterations      ....    16
   Max. Number of Macro iterations      .... Maxiter - #DIIS iter
   Number of Davidson start vectors     ....     2
   Converg. threshold I  (grad. norm)   ....   1.000e-05
   Converg. threshold II (energy diff.) ....   1.000e-08
   Grad. Scal. Fac. for Micro threshold ....   0.100
   Minimum threshold for Micro iter.    ....   0.010
   NR start threshold (gradient norm)   ....   0.001
   Initial trust radius                 ....   0.400
   Minimum AH scaling param. (alpha)    ....   1.000
   Maximum AH scaling param. (alpha)    .... 1000.000
   Orbital update algorithm             .... Taylor
   White noise on init. David. guess    .... on
   Maximum white noise                  ....   0.010
   Quad. conv. algorithm                .... NR
 SOSCF                  CNVSOSCF        .... on
   Start iteration      SOSCFMaxIt      ....   150
   Startup grad/error   SOSCFStart      ....  0.003300
 Level Shifting         CNVShift        .... on
   Level shift para.    LevelShift      ....    0.2500
   Turn off err/grad.   ShiftErr        ....    0.0010
 Zerner damping         CNVZerner       .... off
 Static damping         CNVDamp         .... on
   Fraction old density DampFac         ....    0.7000
   Max. Damping (<1)    DampMax         ....    0.9800
   Min. Damping (>=0)   DampMin         ....    0.0000
   Turn off err/grad.   DampErr         ....    0.1000
 Fernandez-Rico         CNVRico         .... off

SCF Procedure:
 Maximum # iterations   MaxIter         ....   125
 SCF integral mode      SCFMode         .... Direct
   Integral package                     .... SHARK and LIBINT hybrid scheme
 Reset frequency        DirectResetFreq ....    20
 Integral Threshold     Thresh          ....  2.500e-11 Eh
 Primitive CutOff       TCut            ....  2.500e-12 Eh

Convergence Tolerance:
 Convergence Check Mode ConvCheckMode   .... Total+1el-Energy
 Convergence forced     ConvForced      .... 0
 Energy Change          TolE            ....  1.000e-08 Eh
 1-El. energy change                    ....  1.000e-05 Eh
 Orbital Gradient       TolG            ....  1.000e-05
 Orbital Rotation angle TolX            ....  1.000e-05
 DIIS Error             TolErr          ....  5.000e-07


Diagonalization of the overlap matrix:
Smallest eigenvalue                        ... 1.556e-04
Time for diagonalization                   ...    0.068 sec
Threshold for overlap eigenvalues          ... 1.000e-08
Number of eigenvalues below threshold      ... 0
Time for construction of square roots      ...    0.034 sec
Total time needed                          ...    0.103 sec

---------------------
INITIAL GUESS: MOREAD
---------------------
Guess MOs are being read from file: 77.ges
Input Geometry matches current geometry (good)
Input basis set matches current basis set (good)
MOs were renormalized
MOs were reorthogonalized (Cholesky)
                      ------------------
                      INITIAL GUESS DONE (   0.1 sec)
                      ------------------
-------------------
DFT GRID GENERATION
-------------------

General Integration Accuracy     IntAcc      ... 4.388
Radial Grid Type                 RadialGrid  ... OptM3 with GC (2021)
Angular Grid (max. ang.)         AngularGrid ... 4 (Lebedev-302)
Angular grid pruning method      GridPruning ... 4 (adaptive)
Weight generation scheme         WeightScheme... Becke
Basis function cutoff            BFCut       ... 1.0000e-11
Integration weight cutoff        WCut        ... 1.0000e-14
Angular grids for H and He will be reduced by one unit
Partially contracted basis set               ... off
Rotationally invariant grid construction     ... off

Total number of grid points                  ...   212306
Total number of batches                      ...     3337
Average number of points per batch           ...       63
Average number of grid points per atom       ...     4825
Time for grid setup =   10.595 sec

--------------------
COSX GRID GENERATION
--------------------

GRIDX 1
-------
General Integration Accuracy     IntAcc      ... 3.816
Radial Grid Type                 RadialGrid  ... OptM3 with GC (2021)
Angular Grid (max. ang.)         AngularGrid ... 1 (Lebedev-50)
Angular grid pruning method      GridPruning ... 4 (adaptive)
Weight generation scheme         WeightScheme... Becke
Basis function cutoff            BFCut       ... 1.0000e-11
Integration weight cutoff        WCut        ... 1.0000e-14
Angular grids for H and He will be reduced by one unit
Partially contracted basis set               ... on
Rotationally invariant grid construction     ... off

Total number of grid points                  ...    27016
Total number of batches                      ...      441
Average number of points per batch           ...       61
Average number of grid points per atom       ...      614
UseSFitting                                  ... on

GRIDX 2
-------
General Integration Accuracy     IntAcc      ... 4.020
Radial Grid Type                 RadialGrid  ... OptM3 with GC (2021)
Angular Grid (max. ang.)         AngularGrid ... 2 (Lebedev-110)
Angular grid pruning method      GridPruning ... 4 (adaptive)
Weight generation scheme         WeightScheme... Becke
Basis function cutoff            BFCut       ... 1.0000e-11
Integration weight cutoff        WCut        ... 1.0000e-14
Angular grids for H and He will be reduced by one unit
Partially contracted basis set               ... on
Rotationally invariant grid construction     ... off

Total number of grid points                  ...    58798
Total number of batches                      ...      944
Average number of points per batch           ...       62
Average number of grid points per atom       ...     1336
UseSFitting                                  ... on

GRIDX 3
-------
General Integration Accuracy     IntAcc      ... 4.338
Radial Grid Type                 RadialGrid  ... OptM3 with GC (2021)
Angular Grid (max. ang.)         AngularGrid ... 3 (Lebedev-194)
Angular grid pruning method      GridPruning ... 4 (adaptive)
Weight generation scheme         WeightScheme... Becke
Basis function cutoff            BFCut       ... 1.0000e-11
Integration weight cutoff        WCut        ... 1.0000e-14
Angular grids for H and He will be reduced by one unit
Partially contracted basis set               ... on
Rotationally invariant grid construction     ... off

Total number of grid points                  ...   128646
Total number of batches                      ...     2030
Average number of points per batch           ...       63
Average number of grid points per atom       ...     2924
UseSFitting                                  ... on

Time for X-Grid setup             =   13.541 sec

--------------
SCF ITERATIONS
--------------
ITER       Energy         Delta-E        Max-DP      RMS-DP      [F,P]     Damp
               ***  Starting incremental Fock matrix formation  ***
                      *** Initiating the SOSCF procedure ***
                      *** Re-Reading the Fockian *** 
                      *** Removing any level shift *** 
ITER      Energy       Delta-E        Grad      Rot      Max-DP    RMS-DP
  0  -1148.47132009 -1148.4713200866  0.000002  0.000002  0.000028  0.000000
               *** Restarting incremental Fock matrix formation ***
                  ***Gradient check signals convergence***
              ***Rediagonalizing the Fockian in SOSCF/NRSCF***

               *****************************************************
               *                     SUCCESS                       *
               *           SCF CONVERGED AFTER   1 CYCLES          *
               *****************************************************

Old exchange energy                            =    -30.695963127 Eh
New exchange energy                            =    -30.696008327 Eh
Exchange energy change after final integration =     -0.000045200 Eh
Total energy after final integration           =  -1148.471365286 Eh
Final COS-X integration done in                =   179.974 sec

----------------
TOTAL SCF ENERGY
----------------

Total Energy       :        -1148.47136529 Eh          -31251.49464 eV

Components:
Nuclear Repulsion  :         2234.28184000 Eh           60797.89977 eV
Electronic Energy  :        -3382.75320529 Eh          -92049.39442 eV
One Electron Energy:        -6002.45287043 Eh         -163335.04640 eV
Two Electron Energy:         2619.69966515 Eh           71285.65198 eV
Max COSX asymmetry :            0.00000591 Eh               0.00016 eV

Virial components:
Potential Energy   :        -2287.02219417 Eh          -62233.03777 eV
Kinetic Energy     :         1138.55082889 Eh           30981.54313 eV
Virial Ratio       :            2.00871330


DFT components:
N(Alpha)           :       91.000121039010 electrons
N(Beta)            :       91.000121039010 electrons
N(Total)           :      182.000242078019 electrons
E(X)               :     -121.960085072386 Eh       
E(C)               :       -7.351633139059 Eh       
E(XC)              :     -129.311718211446 Eh       
DFET-embed. en.    :        0.000000000000 Eh       

---------------
SCF CONVERGENCE
---------------

  Last Energy change         ...    4.7066e-11  Tolerance :   1.0000e-08
  Last MAX-Density change    ...    3.9968e-15  Tolerance :   1.0000e-07
  Last RMS-Density change    ...    4.0417e-17  Tolerance :   5.0000e-09
  Last Orbital Gradient      ...    1.4842e-06  Tolerance :   1.0000e-05
  Last Orbital Rotation      ...    6.4593e-06  Tolerance :   1.0000e-05

             **** THE GBW FILE WAS UPDATED (77.gbw) ****
             **** DENSITY 77.scfp WAS UPDATED ****
             **** ENERGY FILE WAS UPDATED (77.en.tmp) ****
             **** THE GBW FILE WAS UPDATED (77.gbw) ****
             **** DENSITY 77.scfp WAS UPDATED ****
----------------
ORBITAL ENERGIES
----------------

  NO   OCC          E(Eh)            E(eV) 
   0   2.0000     -19.186525      -522.0919 
   1   2.0000     -19.174666      -521.7692 
   2   2.0000     -19.135813      -520.7119 
   3   2.0000     -19.134941      -520.6882 
   4   2.0000     -10.261036      -279.2170 
   5   2.0000     -10.256918      -279.1049 
   6   2.0000     -10.253769      -279.0192 
   7   2.0000     -10.249057      -278.8910 
   8   2.0000     -10.244636      -278.7707 
   9   2.0000     -10.233972      -278.4805 
  10   2.0000     -10.233914      -278.4790 
  11   2.0000     -10.192831      -277.3610 
  12   2.0000     -10.192338      -277.3476 
  13   2.0000     -10.191477      -277.3242 
  14   2.0000     -10.189577      -277.2725 
  15   2.0000     -10.188484      -277.2427 
  16   2.0000     -10.186748      -277.1955 
  17   2.0000     -10.186461      -277.1877 
  18   2.0000     -10.185199      -277.1534 
  19   2.0000     -10.183811      -277.1156 
  20   2.0000     -10.176398      -276.9139 
  21   2.0000     -10.176386      -276.9135 
  22   2.0000     -10.173993      -276.8484 
  23   2.0000     -10.172868      -276.8178 
  24   2.0000     -10.168734      -276.7053 
  25   2.0000     -10.167521      -276.6723 
  26   2.0000      -1.099066       -29.9071 
  27   2.0000      -1.068660       -29.0797 
  28   2.0000      -1.058071       -28.7916 
  29   2.0000      -1.000403       -27.2223 
  30   2.0000      -0.873796       -23.7772 
  31   2.0000      -0.863370       -23.4935 
  32   2.0000      -0.850985       -23.1565 
  33   2.0000      -0.804178       -21.8828 
  34   2.0000      -0.784114       -21.3368 
  35   2.0000      -0.771304       -20.9882 
  36   2.0000      -0.759661       -20.6714 
  37   2.0000      -0.757177       -20.6038 
  38   2.0000      -0.719001       -19.5650 
  39   2.0000      -0.713323       -19.4105 
  40   2.0000      -0.682228       -18.5644 
  41   2.0000      -0.678710       -18.4686 
  42   2.0000      -0.666702       -18.1419 
  43   2.0000      -0.642568       -17.4852 
  44   2.0000      -0.627807       -17.0835 
  45   2.0000      -0.606146       -16.4941 
  46   2.0000      -0.602976       -16.4078 
  47   2.0000      -0.569710       -15.5026 
  48   2.0000      -0.557965       -15.1830 
  49   2.0000      -0.553447       -15.0601 
  50   2.0000      -0.534521       -14.5451 
  51   2.0000      -0.521209       -14.1828 
  52   2.0000      -0.507346       -13.8056 
  53   2.0000      -0.501839       -13.6557 
  54   2.0000      -0.491877       -13.3847 
  55   2.0000      -0.490062       -13.3353 
  56   2.0000      -0.485991       -13.2245 
  57   2.0000      -0.480420       -13.0729 
  58   2.0000      -0.467832       -12.7304 
  59   2.0000      -0.463998       -12.6260 
  60   2.0000      -0.454705       -12.3732 
  61   2.0000      -0.442616       -12.0442 
  62   2.0000      -0.430995       -11.7280 
  63   2.0000      -0.424692       -11.5564 
  64   2.0000      -0.423496       -11.5239 
  65   2.0000      -0.418912       -11.3992 
  66   2.0000      -0.408330       -11.1112 
  67   2.0000      -0.400925       -10.9097 
  68   2.0000      -0.398403       -10.8411 
  69   2.0000      -0.395899       -10.7730 
  70   2.0000      -0.394280       -10.7289 
  71   2.0000      -0.386114       -10.5067 
  72   2.0000      -0.376123       -10.2348 
  73   2.0000      -0.371894       -10.1197 
  74   2.0000      -0.366987        -9.9862 
  75   2.0000      -0.366318        -9.9680 
  76   2.0000      -0.362412        -9.8617 
  77   2.0000      -0.354894        -9.6572 
  78   2.0000      -0.345861        -9.4114 
  79   2.0000      -0.341450        -9.2913 
  80   2.0000      -0.326382        -8.8813 
  81   2.0000      -0.320894        -8.7320 
  82   2.0000      -0.304513        -8.2862 
  83   2.0000      -0.286289        -7.7903 
  84   2.0000      -0.268802        -7.3145 
  85   2.0000      -0.263870        -7.1803 
  86   2.0000      -0.249562        -6.7909 
  87   2.0000      -0.246394        -6.7047 
  88   2.0000      -0.238771        -6.4973 
  89   2.0000      -0.219993        -5.9863 
  90   2.0000      -0.206084        -5.6078 
  91   0.0000      -0.020916        -0.5691 
  92   0.0000      -0.015059        -0.4098 
  93   0.0000      -0.004685        -0.1275 
  94   0.0000       0.003425         0.0932 
  95   0.0000       0.009791         0.2664 
  96   0.0000       0.032390         0.8814 
  97   0.0000       0.052900         1.4395 
  98   0.0000       0.057918         1.5760 
  99   0.0000       0.064916         1.7664 
 100   0.0000       0.073572         2.0020 
 101   0.0000       0.079227         2.1559 
 102   0.0000       0.085745         2.3333 
 103   0.0000       0.095688         2.6038 
 104   0.0000       0.101810         2.7704 
 105   0.0000       0.108217         2.9447 
 106   0.0000       0.113112         3.0779 
 107   0.0000       0.115888         3.1535 
 108   0.0000       0.129174         3.5150 
 109   0.0000       0.129771         3.5312 
 110   0.0000       0.131801         3.5865 
 111   0.0000       0.136702         3.7199 
 112   0.0000       0.141003         3.8369 
 113   0.0000       0.146175         3.9776 
 114   0.0000       0.160350         4.3633 
 115   0.0000       0.164039         4.4637 
 116   0.0000       0.173801         4.7294 
 117   0.0000       0.178848         4.8667 
 118   0.0000       0.183502         4.9934 
 119   0.0000       0.191689         5.2161 
 120   0.0000       0.203369         5.5339 
 121   0.0000       0.215805         5.8724 
 122   0.0000       0.231585         6.3018 
 123   0.0000       0.232722         6.3327 
 124   0.0000       0.249046         6.7769 
 125   0.0000       0.257634         7.0106 
 126   0.0000       0.262978         7.1560 
 127   0.0000       0.278726         7.5845 
 128   0.0000       0.284183         7.7330 
 129   0.0000       0.285861         7.7787 
 130   0.0000       0.289298         7.8722 
 131   0.0000       0.294804         8.0220 
 132   0.0000       0.301061         8.1923 
 133   0.0000       0.311405         8.4738 
 134   0.0000       0.315866         8.5952 
 135   0.0000       0.318903         8.6778 
 136   0.0000       0.326857         8.8942 
 137   0.0000       0.331051         9.0084 
 138   0.0000       0.340914         9.2768 
 139   0.0000       0.346614         9.4318 
 140   0.0000       0.348426         9.4811 
 141   0.0000       0.368334        10.0229 
 142   0.0000       0.371920        10.1204 
 143   0.0000       0.374021        10.1776 
 144   0.0000       0.382421        10.4062 
 145   0.0000       0.398739        10.8502 
 146   0.0000       0.401382        10.9222 
 147   0.0000       0.414303        11.2738 
 148   0.0000       0.420466        11.4415 
 149   0.0000       0.426645        11.6096 
 150   0.0000       0.433654        11.8003 
 151   0.0000       0.437361        11.9012 
 152   0.0000       0.438583        11.9345 
 153   0.0000       0.440606        11.9895 
 154   0.0000       0.445201        12.1145 
 155   0.0000       0.454729        12.3738 
 156   0.0000       0.464772        12.6471 
 157   0.0000       0.466878        12.7044 
 158   0.0000       0.474285        12.9059 
 159   0.0000       0.476132        12.9562 
 160   0.0000       0.478485        13.0202 
 161   0.0000       0.492942        13.4136 
 162   0.0000       0.494280        13.4500 
 163   0.0000       0.500157        13.6100 
 164   0.0000       0.506832        13.7916 
 165   0.0000       0.515400        14.0247 
 166   0.0000       0.517123        14.0716 
 167   0.0000       0.524183        14.2637 
 168   0.0000       0.537011        14.6128 
 169   0.0000       0.539158        14.6712 
 170   0.0000       0.549069        14.9409 
 171   0.0000       0.550136        14.9700 
 172   0.0000       0.558914        15.2088 
 173   0.0000       0.567365        15.4388 
 174   0.0000       0.579545        15.7702 
 175   0.0000       0.582059        15.8386 
 176   0.0000       0.587530        15.9875 
 177   0.0000       0.591988        16.1088 
 178   0.0000       0.595697        16.2097 
 179   0.0000       0.602180        16.3861 
 180   0.0000       0.606124        16.4935 
 181   0.0000       0.613081        16.6828 
 182   0.0000       0.616179        16.7671 
 183   0.0000       0.622539        16.9401 
 184   0.0000       0.625147        17.0111 
 185   0.0000       0.628301        17.0969 
 186   0.0000       0.633650        17.2425 
 187   0.0000       0.640589        17.4313 
 188   0.0000       0.645715        17.5708 
 189   0.0000       0.647761        17.6265 
 190   0.0000       0.651728        17.7344 
 191   0.0000       0.653063        17.7708 
 192   0.0000       0.653782        17.7903 
 193   0.0000       0.657932        17.9032 
 194   0.0000       0.661677        18.0051 
 195   0.0000       0.669089        18.2068 
 196   0.0000       0.670480        18.2447 
 197   0.0000       0.671977        18.2854 
 198   0.0000       0.680766        18.5246 
 199   0.0000       0.685118        18.6430 
 200   0.0000       0.688808        18.7434 
 201   0.0000       0.691422        18.8145 
 202   0.0000       0.696871        18.9628 
 203   0.0000       0.704066        19.1586 
 204   0.0000       0.708430        19.2774 
 205   0.0000       0.710455        19.3325 
 206   0.0000       0.717980        19.5372 
 207   0.0000       0.723796        19.6955 
 208   0.0000       0.728064        19.8116 
 209   0.0000       0.733880        19.9699 
 210   0.0000       0.734351        19.9827 
 211   0.0000       0.748530        20.3685 
 212   0.0000       0.750254        20.4155 
 213   0.0000       0.757761        20.6197 
 214   0.0000       0.763349        20.7718 
 215   0.0000       0.773015        21.0348 
 216   0.0000       0.778763        21.1912 
 217   0.0000       0.792383        21.5618 
 218   0.0000       0.799442        21.7539 
 219   0.0000       0.803408        21.8619 
 220   0.0000       0.816027        22.2052 
 221   0.0000       0.821300        22.3487 
 222   0.0000       0.826909        22.5013 
 223   0.0000       0.833192        22.6723 
 224   0.0000       0.847662        23.0660 
 225   0.0000       0.854443        23.2506 
 226   0.0000       0.866542        23.5798 
 227   0.0000       0.867885        23.6164 
 228   0.0000       0.888104        24.1665 
 229   0.0000       0.894457        24.3394 
 230   0.0000       0.910449        24.7746 
 231   0.0000       0.924515        25.1573 
 232   0.0000       0.935625        25.4597 
 233   0.0000       0.951676        25.8964 
 234   0.0000       0.969746        26.3881 
 235   0.0000       0.975717        26.5506 
 236   0.0000       0.990171        26.9439 
 237   0.0000       1.021310        27.7913 
 238   0.0000       1.048231        28.5238 
 239   0.0000       1.058751        28.8101 
 240   0.0000       1.070720        29.1358 
 241   0.0000       1.076509        29.2933 
 242   0.0000       1.096565        29.8390 
 243   0.0000       1.109144        30.1813 
 244   0.0000       1.110782        30.2259 
 245   0.0000       1.123121        30.5617 
 246   0.0000       1.128370        30.7045 
 247   0.0000       1.144800        31.1516 
 248   0.0000       1.150080        31.2953 
 249   0.0000       1.155971        31.4556 
 250   0.0000       1.171498        31.8781 
 251   0.0000       1.176117        32.0038 
 252   0.0000       1.193560        32.4784 
 253   0.0000       1.203385        32.7458 
 254   0.0000       1.223375        33.2897 
 255   0.0000       1.225218        33.3399 
 256   0.0000       1.233601        33.5680 
 257   0.0000       1.243908        33.8485 
 258   0.0000       1.246919        33.9304 
 259   0.0000       1.259824        34.2816 
 260   0.0000       1.270572        34.5740 
 261   0.0000       1.278493        34.7896 
 262   0.0000       1.293735        35.2043 
 263   0.0000       1.297406        35.3042 
 264   0.0000       1.303843        35.4794 
 265   0.0000       1.310770        35.6679 
 266   0.0000       1.315412        35.7942 
 267   0.0000       1.320747        35.9394 
 268   0.0000       1.340326        36.4721 
 269   0.0000       1.351650        36.7803 
 270   0.0000       1.355956        36.8974 
 271   0.0000       1.390643        37.8413 
 272   0.0000       1.416920        38.5564 
 273   0.0000       1.432198        38.9721 
 274   0.0000       1.441154        39.2158 
 275   0.0000       1.464971        39.8639 
 276   0.0000       1.474676        40.1280 
 277   0.0000       1.480168        40.2774 
 278   0.0000       1.492093        40.6019 
 279   0.0000       1.493380        40.6369 
 280   0.0000       1.512121        41.1469 
 281   0.0000       1.521656        41.4064 
 282   0.0000       1.526511        41.5385 
 283   0.0000       1.535599        41.7858 
 284   0.0000       1.542635        41.9772 
 285   0.0000       1.547544        42.1108 
 286   0.0000       1.554524        42.3008 
 287   0.0000       1.563343        42.5407 
 288   0.0000       1.575627        42.8750 
 289   0.0000       1.589180        43.2438 
 290   0.0000       1.593912        43.3726 
 291   0.0000       1.613894        43.9163 
 292   0.0000       1.647854        44.8404 
 293   0.0000       1.656185        45.0671 
 294   0.0000       1.667385        45.3719 
 295   0.0000       1.672358        45.5072 
 296   0.0000       1.674659        45.5698 
 297   0.0000       1.686033        45.8793 
 298   0.0000       1.691545        46.0293 
 299   0.0000       1.716085        46.6970 
 300   0.0000       1.722123        46.8613 
 301   0.0000       1.728093        47.0238 
 302   0.0000       1.728611        47.0379 
 303   0.0000       1.734218        47.1905 
 304   0.0000       1.736341        47.2483 
 305   0.0000       1.741423        47.3865 
 306   0.0000       1.746426        47.5227 
 307   0.0000       1.751871        47.6708 
 308   0.0000       1.755877        47.7798 
 309   0.0000       1.761016        47.9197 
 310   0.0000       1.764535        48.0154 
 311   0.0000       1.772982        48.2453 
 312   0.0000       1.774926        48.2982 
 313   0.0000       1.779762        48.4298 
 314   0.0000       1.788162        48.6584 
 315   0.0000       1.791095        48.7382 
 316   0.0000       1.798289        48.9339 
 317   0.0000       1.805386        49.1271 
 318   0.0000       1.812697        49.3260 
 319   0.0000       1.818759        49.4910 
 320   0.0000       1.824009        49.6338 
 321   0.0000       1.829924        49.7948 
 322   0.0000       1.832762        49.8720 
 323   0.0000       1.844270        50.1851 
 324   0.0000       1.846411        50.2434 
 325   0.0000       1.852654        50.4133 
 326   0.0000       1.866317        50.7851 
 327   0.0000       1.873285        50.9747 
 328   0.0000       1.885566        51.3089 
 329   0.0000       1.891054        51.4582 
 330   0.0000       1.899100        51.6771 
 331   0.0000       1.911697        52.0199 
 332   0.0000       1.925640        52.3993 
 333   0.0000       1.930409        52.5291 
 334   0.0000       1.945889        52.9503 
 335   0.0000       1.950431        53.0739 
 336   0.0000       1.959483        53.3202 
 337   0.0000       1.967078        53.5269 
 338   0.0000       1.969446        53.5913 
 339   0.0000       1.975106        53.7454 
 340   0.0000       1.987536        54.0836 
 341   0.0000       2.001689        54.4687 
 342   0.0000       2.020284        54.9747 
 343   0.0000       2.035655        55.3930 
 344   0.0000       2.043592        55.6090 
 345   0.0000       2.048922        55.7540 
 346   0.0000       2.051545        55.8254 
 347   0.0000       2.070566        56.3430 
 348   0.0000       2.078371        56.5554 
 349   0.0000       2.086395        56.7737 
 350   0.0000       2.088031        56.8182 
 351   0.0000       2.103435        57.2374 
 352   0.0000       2.115349        57.5616 
 353   0.0000       2.130654        57.9781 
 354   0.0000       2.132483        58.0278 
 355   0.0000       2.144167        58.3458 
 356   0.0000       2.150914        58.5293 
 357   0.0000       2.164955        58.9114 
 358   0.0000       2.171196        59.0812 
 359   0.0000       2.181240        59.3546 
 360   0.0000       2.189089        59.5681 
 361   0.0000       2.194079        59.7039 
 362   0.0000       2.210820        60.1595 
 363   0.0000       2.213688        60.2375 
 364   0.0000       2.218861        60.3783 
 365   0.0000       2.233032        60.7639 
 366   0.0000       2.238685        60.9177 
 367   0.0000       2.251256        61.2598 
 368   0.0000       2.267606        61.7047 
 369   0.0000       2.269302        61.7508 
 370   0.0000       2.278542        62.0023 
 371   0.0000       2.284453        62.1631 
 372   0.0000       2.285945        62.2037 
 373   0.0000       2.301253        62.6203 
 374   0.0000       2.311400        62.8964 
 375   0.0000       2.325478        63.2795 
 376   0.0000       2.331496        63.4432 
 377   0.0000       2.341757        63.7225 
 378   0.0000       2.343243        63.7629 
 379   0.0000       2.352862        64.0246 
 380   0.0000       2.363239        64.3070 
 381   0.0000       2.382878        64.8414 
 382   0.0000       2.393201        65.1223 
 383   0.0000       2.400226        65.3135 
 384   0.0000       2.411330        65.6156 
 385   0.0000       2.448903        66.6380 
 386   0.0000       2.460980        66.9667 
 387   0.0000       2.473183        67.2987 
 388   0.0000       2.479309        67.4654 
 389   0.0000       2.487969        67.7011 
 390   0.0000       2.491603        67.8000 
 391   0.0000       2.515175        68.4414 
 392   0.0000       2.550050        69.3904 
 393   0.0000       2.560112        69.6642 
 394   0.0000       2.570035        69.9342 
 395   0.0000       2.575298        70.0774 
 396   0.0000       2.598292        70.7031 
 397   0.0000       2.606653        70.9306 
 398   0.0000       2.611306        71.0573 
 399   0.0000       2.620838        71.3166 
 400   0.0000       2.624860        71.4261 
 401   0.0000       2.633144        71.6515 
 402   0.0000       2.650254        72.1171 
 403   0.0000       2.663337        72.4731 
 404   0.0000       2.673088        72.7384 
 405   0.0000       2.703657        73.5703 
 406   0.0000       2.712954        73.8232 
 407   0.0000       2.740429        74.5709 
 408   0.0000       2.748810        74.7989 
 409   0.0000       2.762403        75.1688 
 410   0.0000       2.765871        75.2632 
 411   0.0000       2.774422        75.4959 
 412   0.0000       2.784383        75.7669 
 413   0.0000       2.807357        76.3921 
 414   0.0000       2.827079        76.9287 
 415   0.0000       2.842584        77.3506 
 416   0.0000       2.857075        77.7450 
 417   0.0000       2.864185        77.9384 
 418   0.0000       2.888702        78.6056 
 419   0.0000       2.893110        78.7255 
 420   0.0000       2.902511        78.9813 
 421   0.0000       2.909434        79.1697 
 422   0.0000       2.920399        79.4681 
 423   0.0000       2.927856        79.6710 
 424   0.0000       2.936668        79.9108 
 425   0.0000       2.941341        80.0380 
 426   0.0000       2.965021        80.6823 
 427   0.0000       2.972879        80.8962 
 428   0.0000       2.992603        81.4329 
 429   0.0000       2.996550        81.5403 
 430   0.0000       3.011641        81.9509 
 431   0.0000       3.025782        82.3357 
 432   0.0000       3.030318        82.4592 
 433   0.0000       3.055800        83.1525 
 434   0.0000       3.083252        83.8995 
 435   0.0000       3.097959        84.2998 
 436   0.0000       3.108876        84.5968 
 437   0.0000       3.166560        86.1665 
 438   0.0000       3.177527        86.4649 
 439   0.0000       3.195623        86.9573 
 440   0.0000       3.197458        87.0073 
 441   0.0000       3.231541        87.9347 
 442   0.0000       3.261291        88.7442 
 443   0.0000       3.315081        90.2079 
 444   0.0000       3.364714        91.5585 
 445   0.0000       3.398821        92.4866 
 446   0.0000       3.466183        94.3196 
 447   0.0000       3.545868        96.4880 
 448   0.0000       3.590459        97.7013 
 449   0.0000       3.649483        99.3075 
 450   0.0000       3.650721        99.3412 
 451   0.0000       3.696534       100.5878 
 452   0.0000       3.774538       102.7104 
 453   0.0000       3.939680       107.2041 

                    ********************************
                    * MULLIKEN POPULATION ANALYSIS *
                    ********************************

-----------------------
MULLIKEN ATOMIC CHARGES
-----------------------
   0 C :    0.085286
   1 C :   -0.009424
   2 C :   -0.081013
   3 C :    0.248087
   4 C :   -0.146208
   5 C :    0.284329
   6 C :   -0.080512
   7 O :   -0.201079
   8 C :    0.270293
   9 C :   -0.148030
  10 C :    0.035833
  11 C :   -0.126730
  12 C :    0.261999
  13 C :   -0.164073
  14 C :    0.276327
  15 C :   -0.113693
  16 C :   -0.098401
  17 C :    0.446291
  18 O :   -0.344968
  19 C :   -0.099055
  20 C :    0.074682
  21 C :   -0.073247
  22 C :    0.247146
  23 O :   -0.289002
  24 C :    0.076819
  25 O :   -0.328936
  26 H :    0.026132
  27 H :    0.008156
  28 H :    0.033567
  29 H :   -0.058515
  30 H :   -0.037937
  31 H :   -0.047838
  32 H :   -0.057062
  33 H :   -0.044601
  34 H :   -0.013046
  35 H :   -0.004103
  36 H :    0.015971
  37 H :   -0.044099
  38 H :   -0.027702
  39 H :   -0.030508
  40 H :    0.031047
  41 H :    0.013101
  42 H :    0.021822
  43 H :    0.212893
Sum of atomic charges:    0.0000000

--------------------------------
MULLIKEN REDUCED ORBITAL CHARGES
--------------------------------
  0 C s       :     2.941036  s :     2.941036
      pz      :     0.996835  p :     2.945578
      px      :     0.978576
      py      :     0.970166
      dz2     :     0.005920  d :     0.028100
      dxz     :     0.003436
      dyz     :     0.006300
      dx2y2   :     0.008287
      dxy     :     0.004157
  1 C s       :     3.048742  s :     3.048742
      pz      :     0.968139  p :     2.912947
      px      :     0.964261
      py      :     0.980547
      dz2     :     0.003231  d :     0.047735
      dxz     :     0.008101
      dyz     :     0.007115
      dx2y2   :     0.014467
      dxy     :     0.014821
  2 C s       :     3.332381  s :     3.332381
      pz      :     1.047122  p :     2.714195
      px      :     0.743975
      py      :     0.923098
      dz2     :     0.002687  d :     0.034437
      dxz     :     0.002873
      dyz     :     0.006178
      dx2y2   :     0.012502
      dxy     :     0.010197
  3 C s       :     2.921688  s :     2.921688
      pz      :     1.001515  p :     2.755229
      px      :     0.878644
      py      :     0.875070
      dz2     :     0.005141  d :     0.074996
      dxz     :     0.010130
      dyz     :     0.010527
      dx2y2   :     0.025069
      dxy     :     0.024130
  4 C s       :     3.377606  s :     3.377606
      pz      :     1.076781  p :     2.735490
      px      :     0.922463
      py      :     0.736247
      dz2     :     0.002909  d :     0.033112
      dxz     :     0.006618
      dyz     :     0.003007
      dx2y2   :     0.010013
      dxy     :     0.010564
  5 C s       :     2.909803  s :     2.909803
      pz      :     0.988429  p :     2.721215
      px      :     0.779580
      py      :     0.953207
      dz2     :     0.005884  d :     0.084652
      dxz     :     0.017600
      dyz     :     0.007868
      dx2y2   :     0.027041
      dxy     :     0.026258
  6 C s       :     3.340664  s :     3.340664
      pz      :     1.040676  p :     2.706811
      px      :     0.806697
      py      :     0.859437
      dz2     :     0.002756  d :     0.033037
      dxz     :     0.004815
      dyz     :     0.004008
      dx2y2   :     0.010364
      dxy     :     0.011094
  7 O s       :     3.601444  s :     3.601444
      pz      :     1.707920  p :     4.583829
      px      :     1.206664
      py      :     1.669245
      dz2     :     0.001818  d :     0.015805
      dxz     :     0.004074
      dyz     :     0.001555
      dx2y2   :     0.004295
      dxy     :     0.004063
  8 C s       :     2.959096  s :     2.959096
      pz      :     0.967549  p :     2.686375
      px      :     0.892839
      py      :     0.825987
      dz2     :     0.006660  d :     0.084237
      dxz     :     0.013781
      dyz     :     0.012028
      dx2y2   :     0.025581
      dxy     :     0.026187
  9 C s       :     3.361909  s :     3.361909
      pz      :     1.068721  p :     2.752198
      px      :     0.753320
      py      :     0.930157
      dz2     :     0.003126  d :     0.033923
      dxz     :     0.003449
      dyz     :     0.005620
      dx2y2   :     0.012239
      dxy     :     0.009489
 10 C s       :     3.033317  s :     3.033317
      pz      :     0.964811  p :     2.882686
      px      :     0.948193
      py      :     0.969681
      dz2     :     0.003785  d :     0.048165
      dxz     :     0.008809
      dyz     :     0.006622
      dx2y2   :     0.013979
      dxy     :     0.014969
 11 C s       :     3.364541  s :     3.364541
      pz      :     1.053461  p :     2.727311
      px      :     0.769714
      py      :     0.904136
      dz2     :     0.002987  d :     0.034878
      dxz     :     0.004389
      dyz     :     0.005370
      dx2y2   :     0.011539
      dxy     :     0.010593
 12 C s       :     2.961213  s :     2.961213
      pz      :     0.998958  p :     2.707896
      px      :     0.793800
      py      :     0.915138
      dz2     :     0.005827  d :     0.068893
      dxz     :     0.013321
      dyz     :     0.008662
      dx2y2   :     0.020297
      dxy     :     0.020785
 13 C s       :     3.192229  s :     3.192229
      pz      :     1.104240  p :     2.932263
      px      :     0.900271
      py      :     0.927752
      dz2     :     0.003525  d :     0.039581
      dxz     :     0.006454
      dyz     :     0.005906
      dx2y2   :     0.011410
      dxy     :     0.012287
 14 C s       :     2.905453  s :     2.905453
      pz      :     0.872868  p :     2.732004
      px      :     0.883033
      py      :     0.976103
      dz2     :     0.020532  d :     0.086217
      dxz     :     0.014551
      dyz     :     0.017426
      dx2y2   :     0.019542
      dxy     :     0.014167
 15 C s       :     3.196736  s :     3.196736
      pz      :     1.026040  p :     2.872728
      px      :     0.919748
      py      :     0.926939
      dz2     :     0.004428  d :     0.044229
      dxz     :     0.007299
      dyz     :     0.006450
      dx2y2   :     0.012933
      dxy     :     0.013120
 16 C s       :     3.116969  s :     3.116969
      pz      :     1.012900  p :     2.936182
      px      :     0.894323
      py      :     1.028960
      dz2     :     0.003866  d :     0.045249
      dxz     :     0.007577
      dyz     :     0.006775
      dx2y2   :     0.015820
      dxy     :     0.011212
 17 C s       :     2.797017  s :     2.797017
      pz      :     0.966478  p :     2.697549
      px      :     0.923266
      py      :     0.807804
      dz2     :     0.010027  d :     0.059143
      dxz     :     0.006098
      dyz     :     0.013752
      dx2y2   :     0.015927
      dxy     :     0.013340
 18 O s       :     3.780971  s :     3.780971
      pz      :     1.630799  p :     4.545460
      px      :     1.674533
      py      :     1.240128
      dz2     :     0.003432  d :     0.018538
      dxz     :     0.003900
      dyz     :     0.003488
      dx2y2   :     0.002947
      dxy     :     0.004770
 19 C s       :     3.280918  s :     3.280918
      pz      :     0.994833  p :     2.781501
      px      :     0.959291
      py      :     0.827377
      dz2     :     0.002647  d :     0.036636
      dxz     :     0.007099
      dyz     :     0.003003
      dx2y2   :     0.013345
      dxy     :     0.010543
 20 C s       :     3.156874  s :     3.156874
      pz      :     0.994533  p :     2.732968
      px      :     0.848945
      py      :     0.889490
      dz2     :     0.003127  d :     0.035476
      dxz     :     0.003838
      dyz     :     0.005688
      dx2y2   :     0.010495
      dxy     :     0.012327
 21 C s       :     3.279056  s :     3.279056
      pz      :     1.012973  p :     2.759750
      px      :     0.888898
      py      :     0.857879
      dz2     :     0.003072  d :     0.034441
      dxz     :     0.004193
      dyz     :     0.005336
      dx2y2   :     0.009334
      dxy     :     0.012507
 22 C s       :     2.980720  s :     2.980720
      pz      :     0.987853  p :     2.699537
      px      :     0.984026
      py      :     0.727657
      dz2     :     0.006333  d :     0.072597
      dxz     :     0.007745
      dyz     :     0.015105
      dx2y2   :     0.023379
      dxy     :     0.020036
 23 O s       :     3.728836  s :     3.728836
      pz      :     1.746851  p :     4.544056
      px      :     1.449247
      py      :     1.347958
      dz2     :     0.002240  d :     0.016110
      dxz     :     0.002076
      dyz     :     0.002628
      dx2y2   :     0.006545
      dxy     :     0.002620
 24 C s       :     2.935163  s :     2.935163
      pz      :     1.008224  p :     2.959166
      px      :     0.990167
      py      :     0.960775
      dz2     :     0.007819  d :     0.028852
      dxz     :     0.002995
      dyz     :     0.004898
      dx2y2   :     0.006798
      dxy     :     0.006342
 25 O s       :     3.700949  s :     3.700949
      pz      :     1.435627  p :     4.617214
      px      :     1.625117
      py      :     1.556470
      dz2     :     0.003384  d :     0.010772
      dxz     :     0.001363
      dyz     :     0.001717
      dx2y2   :     0.001439
      dxy     :     0.002869
 26 H s       :     0.950750  s :     0.950750
      pz      :     0.009996  p :     0.023118
      px      :     0.006611
      py      :     0.006511
 27 H s       :     0.968811  s :     0.968811
      pz      :     0.004909  p :     0.023033
      px      :     0.013951
      py      :     0.004173
 28 H s       :     0.943640  s :     0.943640
      pz      :     0.011659  p :     0.022793
      px      :     0.005524
      py      :     0.005610
 29 H s       :     1.035158  s :     1.035158
      pz      :     0.005240  p :     0.023357
      px      :     0.014042
      py      :     0.004075
 30 H s       :     1.015474  s :     1.015474
      pz      :     0.004903  p :     0.022463
      px      :     0.003763
      py      :     0.013796
 31 H s       :     1.024732  s :     1.024732
      pz      :     0.004839  p :     0.023106
      px      :     0.009869
      py      :     0.008398
 32 H s       :     1.033384  s :     1.033384
      pz      :     0.005392  p :     0.023678
      px      :     0.012713
      py      :     0.005574
 33 H s       :     1.021323  s :     1.021323
      pz      :     0.005245  p :     0.023278
      px      :     0.011169
      py      :     0.006863
 34 H s       :     0.994787  s :     0.994787
      pz      :     0.010008  p :     0.018259
      px      :     0.003873
      py      :     0.004378
 35 H s       :     0.981457  s :     0.981457
      pz      :     0.010451  p :     0.022646
      px      :     0.006163
      py      :     0.006033
 36 H s       :     0.962768  s :     0.962768
      pz      :     0.012795  p :     0.021261
      px      :     0.004299
      py      :     0.004167
 37 H s       :     1.020691  s :     1.020691
      pz      :     0.005579  p :     0.023408
      px      :     0.003590
      py      :     0.014239
 38 H s       :     1.003675  s :     1.003675
      pz      :     0.005233  p :     0.024027
      px      :     0.012013
      py      :     0.006780
 39 H s       :     1.007027  s :     1.007027
      pz      :     0.005084  p :     0.023481
      px      :     0.012021
      py      :     0.006376
 40 H s       :     0.944916  s :     0.944916
      pz      :     0.013846  p :     0.024037
      px      :     0.005420
      py      :     0.004771
 41 H s       :     0.964355  s :     0.964355
      pz      :     0.005667  p :     0.022544
      px      :     0.011798
      py      :     0.005079
 42 H s       :     0.955269  s :     0.955269
      pz      :     0.006891  p :     0.022909
      px      :     0.009204
      py      :     0.006814
 43 H s       :     0.724733  s :     0.724733
      pz      :     0.028267  p :     0.062374
      px      :     0.016447
      py      :     0.017660


                     *******************************
                     * LOEWDIN POPULATION ANALYSIS *
                     *******************************

----------------------
LOEWDIN ATOMIC CHARGES
----------------------
   0 C :   -0.039007
   1 C :   -0.024734
   2 C :   -0.065111
   3 C :    0.055645
   4 C :   -0.090606
   5 C :    0.058728
   6 C :   -0.052967
   7 O :    0.015646
   8 C :    0.069477
   9 C :   -0.073764
  10 C :   -0.017051
  11 C :   -0.060023
  12 C :    0.082247
  13 C :   -0.088210
  14 C :    0.035406
  15 C :   -0.054431
  16 C :   -0.037378
  17 C :    0.117717
  18 O :   -0.133044
  19 C :   -0.031242
  20 C :   -0.016322
  21 C :   -0.029919
  22 C :    0.054431
  23 O :   -0.076526
  24 C :   -0.039622
  25 O :   -0.141466
  26 H :    0.034547
  27 H :    0.026258
  28 H :    0.039560
  29 H :    0.021928
  30 H :    0.031179
  31 H :    0.025650
  32 H :    0.021911
  33 H :    0.029458
  34 H :    0.006157
  35 H :    0.016875
  36 H :    0.033047
  37 H :    0.018573
  38 H :    0.026617
  39 H :    0.027456
  40 H :    0.037085
  41 H :    0.030718
  42 H :    0.033726
  43 H :    0.121381

-------------------------------
LOEWDIN REDUCED ORBITAL CHARGES
-------------------------------
  0 C s       :     2.839092  s :     2.839092
      pz      :     1.055435  p :     3.128303
      px      :     1.051408
      py      :     1.021461
      dz2     :     0.015351  d :     0.071612
      dxz     :     0.008341
      dyz     :     0.015569
      dx2y2   :     0.021975
      dxy     :     0.010375
  1 C s       :     2.838388  s :     2.838388
      pz      :     0.938839  p :     3.067709
      px      :     1.089188
      py      :     1.039682
      dz2     :     0.007824  d :     0.118637
      dxz     :     0.018007
      dyz     :     0.012631
      dx2y2   :     0.039757
      dxy     :     0.040418
  2 C s       :     2.851264  s :     2.851264
      pz      :     1.034597  p :     3.120467
      px      :     1.033517
      py      :     1.052353
      dz2     :     0.007025  d :     0.093380
      dxz     :     0.005183
      dyz     :     0.013663
      dx2y2   :     0.036843
      dxy     :     0.030666
  3 C s       :     2.829994  s :     2.829994
      pz      :     0.974740  p :     2.940201
      px      :     0.983250
      py      :     0.982211
      dz2     :     0.011582  d :     0.174161
      dxz     :     0.019713
      dyz     :     0.020248
      dx2y2   :     0.063605
      dxy     :     0.059014
  4 C s       :     2.858561  s :     2.858561
      pz      :     1.055535  p :     3.140965
      px      :     1.057820
      py      :     1.027610
      dz2     :     0.007730  d :     0.091081
      dxz     :     0.014697
      dyz     :     0.005103
      dx2y2   :     0.031398
      dxy     :     0.032153
  5 C s       :     2.812572  s :     2.812572
      pz      :     0.976387  p :     2.929723
      px      :     0.867194
      py      :     1.086141
      dz2     :     0.013180  d :     0.198977
      dxz     :     0.036414
      dyz     :     0.016312
      dx2y2   :     0.068404
      dxy     :     0.064668
  6 C s       :     2.855970  s :     2.855970
      pz      :     1.030562  p :     3.106790
      px      :     1.054954
      py      :     1.021274
      dz2     :     0.006863  d :     0.090206
      dxz     :     0.009885
      dyz     :     0.008184
      dx2y2   :     0.030721
      dxy     :     0.034553
  7 O s       :     3.296667  s :     3.296667
      pz      :     1.680391  p :     4.654975
      px      :     1.316540
      py      :     1.658044
      dz2     :     0.003203  d :     0.032712
      dxz     :     0.008037
      dyz     :     0.002520
      dx2y2   :     0.009583
      dxy     :     0.009369
  8 C s       :     2.813090  s :     2.813090
      pz      :     0.974771  p :     2.917621
      px      :     0.926456
      py      :     1.016393
      dz2     :     0.014571  d :     0.199812
      dxz     :     0.029023
      dyz     :     0.025625
      dx2y2   :     0.064945
      dxy     :     0.065647
  9 C s       :     2.850043  s :     2.850043
      pz      :     1.050210  p :     3.131433
      px      :     1.038570
      py      :     1.042653
      dz2     :     0.007719  d :     0.092288
      dxz     :     0.007030
      dyz     :     0.012720
      dx2y2   :     0.035487
      dxy     :     0.029331
 10 C s       :     2.833099  s :     2.833099
      pz      :     0.941255  p :     3.063668
      px      :     1.084804
      py      :     1.037610
      dz2     :     0.008660  d :     0.120284
      dxz     :     0.019839
      dyz     :     0.012408
      dx2y2   :     0.039576
      dxy     :     0.039800
 11 C s       :     2.842780  s :     2.842780
      pz      :     1.041127  p :     3.122719
      px      :     1.046662
      py      :     1.034930
      dz2     :     0.007285  d :     0.094525
      dxz     :     0.009223
      dyz     :     0.011990
      dx2y2   :     0.033659
      dxy     :     0.032367
 12 C s       :     2.832562  s :     2.832562
      pz      :     0.996035  p :     2.924445
      px      :     0.877373
      py      :     1.051036
      dz2     :     0.012346  d :     0.160747
      dxz     :     0.027060
      dyz     :     0.018094
      dx2y2   :     0.052153
      dxy     :     0.051093
 13 C s       :     2.841676  s :     2.841676
[...]
      pz      :     1.072114  p :     2.906700
      px      :     0.986015
      py      :     0.848571
      dz2     :     0.022695  d :     0.132324
      dxz     :     0.013215
      dyz     :     0.032009
      dx2y2   :     0.035781
      dxy     :     0.028623
 18 O s       :     3.462443  s :     3.462443
      pz      :     1.677094  p :     4.637258
      px      :     1.684364
      py      :     1.275800
      dz2     :     0.005592  d :     0.033343
      dxz     :     0.006283
      dyz     :     0.006643
      dx2y2   :     0.005743
      dxy     :     0.009082
 19 C s       :     2.850101  s :     2.850101
      pz      :     0.994626  p :     3.085256
      px      :     1.058149
      py      :     1.032481
      dz2     :     0.006384  d :     0.095886
      dxz     :     0.015928
      dyz     :     0.005953
      dx2y2   :     0.037442
      dxy     :     0.030179
 20 C s       :     2.851660  s :     2.851660
      pz      :     0.983740  p :     3.073080
      px      :     1.044576
      py      :     1.044765
      dz2     :     0.007237  d :     0.091582
      dxz     :     0.007983
      dyz     :     0.012804
      dx2y2   :     0.029481
      dxy     :     0.034076
 21 C s       :     2.854878  s :     2.854878
      pz      :     1.002927  p :     3.085210
      px      :     1.031739
      py      :     1.050544
      dz2     :     0.007207  d :     0.089830
      dxz     :     0.008443
      dyz     :     0.011853
      dx2y2   :     0.027327
      dxy     :     0.035001
 22 C s       :     2.820630  s :     2.820630
      pz      :     0.985310  p :     2.953642
      px      :     1.099041
      py      :     0.869291
      dz2     :     0.013602  d :     0.171296
      dxz     :     0.016687
      dyz     :     0.030762
      dx2y2   :     0.058297
      dxy     :     0.051948
 23 O s       :     3.447699  s :     3.447699
      pz      :     1.737686  p :     4.599199
      px      :     1.476159
      py      :     1.385354
      dz2     :     0.003624  d :     0.029629
      dxz     :     0.003049
      dyz     :     0.004497
      dx2y2   :     0.012603
      dxy     :     0.005856
 24 C s       :     2.833191  s :     2.833191
      pz      :     1.063248  p :     3.132619
      px      :     1.054208
      py      :     1.015163
      dz2     :     0.020037  d :     0.073811
      dxz     :     0.007638
      dyz     :     0.011849
      dx2y2   :     0.018022
      dxy     :     0.016265
 25 O s       :     3.435924  s :     3.435924
      pz      :     1.491756  p :     4.684891
      px      :     1.625939
      py      :     1.567195
      dz2     :     0.006682  d :     0.020651
      dxz     :     0.002431
      dyz     :     0.003544
      dx2y2   :     0.002507
      dxy     :     0.005487
 26 H s       :     0.901905  s :     0.901905
      pz      :     0.027470  p :     0.063548
      px      :     0.017557
      py      :     0.018521
 27 H s       :     0.909222  s :     0.909222
      pz      :     0.012077  p :     0.064519
      px      :     0.040151
      py      :     0.012292
 28 H s       :     0.899173  s :     0.899173
      pz      :     0.032482  p :     0.061267
      px      :     0.013127
      py      :     0.015658
 29 H s       :     0.907859  s :     0.907859
      pz      :     0.016993  p :     0.070213
      px      :     0.040254
      py      :     0.012966
 30 H s       :     0.901909  s :     0.901909
      pz      :     0.015677  p :     0.066912
      px      :     0.011474
      py      :     0.039762
 31 H s       :     0.905743  s :     0.905743
      pz      :     0.015397  p :     0.068607
      px      :     0.027552
      py      :     0.025658
 32 H s       :     0.906658  s :     0.906658
      pz      :     0.017320  p :     0.071431
      px      :     0.036716
      py      :     0.017395
 33 H s       :     0.901639  s :     0.901639
      pz      :     0.016732  p :     0.068904
      px      :     0.031704
      py      :     0.020468
 34 H s       :     0.936961  s :     0.936961
      pz      :     0.032628  p :     0.056882
      px      :     0.011033
      py      :     0.013220
 35 H s       :     0.912542  s :     0.912542
      pz      :     0.033163  p :     0.070583
      px      :     0.018279
      py      :     0.019141
 36 H s       :     0.902422  s :     0.902422
      pz      :     0.037957  p :     0.064531
      px      :     0.012559
      py      :     0.014015
 37 H s       :     0.912089  s :     0.912089
      pz      :     0.016958  p :     0.069338
      px      :     0.011945
      py      :     0.040434
 38 H s       :     0.902215  s :     0.902215
      pz      :     0.016099  p :     0.071168
      px      :     0.034433
      py      :     0.020637
 39 H s       :     0.901591  s :     0.901591
      pz      :     0.016205  p :     0.070953
      px      :     0.035377
      py      :     0.019371
 40 H s       :     0.897443  s :     0.897443
      pz      :     0.039423  p :     0.065471
      px      :     0.012550
      py      :     0.013499
 41 H s       :     0.907743  s :     0.907743
      pz      :     0.013969  p :     0.061540
      px      :     0.033180
      py      :     0.014391
 42 H s       :     0.903587  s :     0.903587
      pz      :     0.017755  p :     0.062687
      px      :     0.025480
      py      :     0.019452
 43 H s       :     0.720068  s :     0.720068
      pz      :     0.077033  p :     0.158552
      px      :     0.039570
      py      :     0.041948


                      *****************************
                      * MAYER POPULATION ANALYSIS *
                      *****************************

  NA   - Mulliken gross atomic population
  ZA   - Total nuclear charge
  QA   - Mulliken gross atomic charge
  VA   - Mayer's total valence
  BVA  - Mayer's bonded valence
  FA   - Mayer's free valence

  ATOM       NA         ZA         QA         VA         BVA        FA
  0 C      5.9147     6.0000     0.0853     3.8957     3.8957    -0.0000
  1 C      6.0094     6.0000    -0.0094     3.8536     3.8536    -0.0000
  2 C      6.0810     6.0000    -0.0810     3.7877     3.7877     0.0000
  3 C      5.7519     6.0000     0.2481     3.8795     3.8795     0.0000
  4 C      6.1462     6.0000    -0.1462     3.7605     3.7605    -0.0000
  5 C      5.7157     6.0000     0.2843     3.7838     3.7838     0.0000
  6 C      6.0805     6.0000    -0.0805     3.8233     3.8233    -0.0000
  7 O      8.2011     8.0000    -0.2011     2.2628     2.2628    -0.0000
  8 C      5.7297     6.0000     0.2703     3.8305     3.8305     0.0000
  9 C      6.1480     6.0000    -0.1480     3.7863     3.7863     0.0000
 10 C      5.9642     6.0000     0.0358     3.8544     3.8544    -0.0000
 11 C      6.1267     6.0000    -0.1267     3.8142     3.8142     0.0000
 12 C      5.7380     6.0000     0.2620     3.8821     3.8821     0.0000
 13 C      6.1641     6.0000    -0.1641     3.8146     3.8146     0.0000
 14 C      5.7237     6.0000     0.2763     3.9845     3.9845     0.0000
 15 C      6.1137     6.0000    -0.1137     3.9738     3.9738     0.0000
 16 C      6.0984     6.0000    -0.0984     3.9400     3.9400    -0.0000
 17 C      5.5537     6.0000     0.4463     3.8131     3.8131    -0.0000
 18 O      8.3450     8.0000    -0.3450     2.1499     2.1499     0.0000
 19 C      6.0991     6.0000    -0.0991     3.8418     3.8418     0.0000
 20 C      5.9253     6.0000     0.0747     3.7480     3.7480     0.0000
 21 C      6.0732     6.0000    -0.0732     3.8265     3.8265     0.0000
 22 C      5.7529     6.0000     0.2471     3.7816     3.7816    -0.0000
 23 O      8.2890     8.0000    -0.2890     2.2420     2.2420     0.0000
 24 C      5.9232     6.0000     0.0768     3.9025     3.9025     0.0000
 25 O      8.3289     8.0000    -0.3289     2.0624     2.0624    -0.0000
 26 H      0.9739     1.0000     0.0261     0.9921     0.9921    -0.0000
 27 H      0.9918     1.0000     0.0082     0.9970     0.9970     0.0000
 28 H      0.9664     1.0000     0.0336     0.9877     0.9877    -0.0000
 29 H      1.0585     1.0000    -0.0585     1.0017     1.0017     0.0000
 30 H      1.0379     1.0000    -0.0379     1.0112     1.0112    -0.0000
 31 H      1.0478     1.0000    -0.0478     1.0213     1.0213    -0.0000
 32 H      1.0571     1.0000    -0.0571     0.9964     0.9964     0.0000
 33 H      1.0446     1.0000    -0.0446     0.9991     0.9991     0.0000
 34 H      1.0130     1.0000    -0.0130     0.9681     0.9681    -0.0000
 35 H      1.0041     1.0000    -0.0041     0.9858     0.9858     0.0000
 36 H      0.9840     1.0000     0.0160     0.9931     0.9931     0.0000
 37 H      1.0441     1.0000    -0.0441     0.9807     0.9807    -0.0000
 38 H      1.0277     1.0000    -0.0277     0.9796     0.9796     0.0000
 39 H      1.0305     1.0000    -0.0305     0.9886     0.9886     0.0000
 40 H      0.9690     1.0000     0.0310     0.9882     0.9882     0.0000
 41 H      0.9869     1.0000     0.0131     0.9934     0.9934    -0.0000
 42 H      0.9782     1.0000     0.0218     0.9918     0.9918     0.0000
 43 H      0.7871     1.0000     0.2129     0.9778     0.9778    -0.0000

  Mayer bond orders larger than 0.100000
B(  0-C ,  1-C ) :   1.0474 B(  0-C , 26-H ) :   0.9585 B(  0-C , 27-H ) :   0.9595 
B(  0-C , 28-H ) :   0.9543 B(  1-C ,  2-C ) :   1.2989 B(  1-C ,  6-C ) :   1.3934 
B(  2-C ,  3-C ) :   1.3633 B(  2-C , 29-H ) :   1.0106 B(  3-C ,  4-C ) :   1.3299 
B(  3-C , 25-O ) :   1.0438 B(  4-C ,  5-C ) :   1.3062 B(  4-C , 30-H ) :   1.0028 
B(  5-C ,  6-C ) :   1.3131 B(  5-C ,  7-O ) :   1.0120 B(  6-C , 31-H ) :   1.0064 
B(  7-O ,  8-C ) :   1.1035 B(  8-C ,  9-C ) :   1.3187 B(  8-C , 13-C ) :   1.2926 
B(  9-C , 10-C ) :   1.3083 B(  9-C , 32-H ) :   1.0091 B( 10-C , 11-C ) :   1.3610 
B( 10-C , 24-C ) :   1.0612 B( 11-C , 12-C ) :   1.3190 B( 11-C , 33-H ) :   1.0042 
B( 12-C , 13-C ) :   1.3943 B( 12-C , 23-O ) :   1.0531 B( 13-C , 14-C ) :   0.9882 
B( 14-C , 15-C ) :   0.9659 B( 14-C , 18-O ) :   1.0803 B( 14-C , 34-H ) :   0.8530 
B( 15-C , 16-C ) :   1.3885 B( 15-C , 22-C ) :   1.3643 B( 16-C , 17-C ) :   1.0100 
B( 16-C , 19-C ) :   1.3908 B( 17-C , 18-O ) :   0.9727 B( 17-C , 35-H ) :   0.8792 
B( 17-C , 36-H ) :   0.9266 B( 19-C , 20-C ) :   1.3368 B( 19-C , 37-H ) :   0.9964 
B( 20-C , 21-C ) :   1.3632 B( 20-C , 38-H ) :   0.9981 B( 21-C , 22-C ) :   1.3200 
B( 21-C , 39-H ) :   0.9932 B( 22-C , 23-O ) :   1.0700 B( 24-C , 40-H ) :   0.9495 
B( 24-C , 41-H ) :   0.9572 B( 24-C , 42-H ) :   0.9567 B( 25-O , 43-H ) :   0.9346 


-------
TIMINGS
-------

Total SCF time: 0 days 0 hours 6 min 59 sec 

Total time                  ....     419.805 sec
Sum of individual times     ....     418.298 sec  ( 99.6%)

Fock matrix formation       ....     393.468 sec  ( 93.7%)
  Split-RI-J                ....      24.493 sec  (  6.2% of F)
  Chain of spheres X        ....     349.385 sec  ( 88.8% of F)
  XC integration            ....      19.447 sec  (  4.9% of F)
    Basis function eval.    ....       6.202 sec  ( 31.9% of XC)
    Density eval.           ....       7.110 sec  ( 36.6% of XC)
    XC-Functional eval.     ....       1.221 sec  (  6.3% of XC)
    XC-Potential eval.      ....       3.995 sec  ( 20.5% of XC)
Diagonalization             ....       0.135 sec  (  0.0%)
Density matrix formation    ....       0.058 sec  (  0.0%)
Population analysis         ....       0.216 sec  (  0.1%)
Initial guess               ....       0.119 sec  (  0.0%)
Orbital Transformation      ....       0.000 sec  (  0.0%)
Orbital Orthonormalization  ....       0.099 sec  (  0.0%)
DIIS solution               ....       0.036 sec  (  0.0%)
SOSCF solution              ....       0.130 sec  (  0.0%)
Grid generation             ....      24.137 sec  (  5.7%)

Maximum memory used throughout the entire SCF-calculation: 185.4 MB

-------------------------   --------------------
FINAL SINGLE POINT ENERGY     -1148.471365286325
-------------------------   --------------------


                            ***************************************
                            *     ORCA property calculations      *
                            ***************************************

                                    ---------------------
                                    Active property flags
                                    ---------------------
   (+) Dipole Moment
   (+) Polarizability


------------------------------------------------------------------------------
                       ORCA ELECTRIC PROPERTIES CALCULATION
------------------------------------------------------------------------------

Dipole Moment Calculation                       ... on
Quadrupole Moment Calculation                   ... off
Polarizability Calculation                      ... Analytic (CP-SCF)
GBWName                                         ... 77.gbw
Electron density                                ... 77.scfp
The origin for moment calculation is the CENTER OF MASS  = ( 0.332295, -0.107624 -0.362506)

-------------
DIPOLE MOMENT
-------------
                                X             Y             Z
Electronic contribution:      8.85279      -1.66058      -1.12201
Nuclear contribution   :     -8.89016       1.99052       0.77469
                        -----------------------------------------
Total Dipole Moment    :     -0.03737       0.32994      -0.34732
                        -----------------------------------------
Magnitude (a.u.)       :      0.48051
Magnitude (Debye)      :      1.22135



--------------------
Rotational spectrum 
--------------------
 
Rotational constants in cm-1:     0.010725     0.004597     0.003248 
Rotational constants in MHz :   321.521328   137.821339    97.372800 

 Dipole components along the rotational axes: 
x,y,z [a.u.] :    -0.001353     0.392571    -0.277078 
x,y,z [Debye]:    -0.003440     0.997837    -0.704276 

 
Transforming and storing MO dipole integrals   ... done

                ... starting polarizability calculation

The origin for moment calculation is the CENTER OF MASS  = ( 0.332295, -0.107624 -0.362506)
Opening the Dipole integral file               ... (77.dmo.tmp) done
Reading Dipole-MO integrals                    ... done
Solving CP-SCF equations                       ... 
------------------------------------------------------------------------------
                           ORCA CP-SCF CALCULATION
------------------------------------------------------------------------------

Input orbitals are from        ... 77.gbw
Input Perturbation             ... 77.cpv.tmp
Wavefunction output            ... 77.cpu.tmp
Perturbation mode              ... Real perturbation (singlet)
Solver                         ... POPLE
Max. number of iterations      ... 64
Convergence tolerance          ... 1.000e-04
Integral handling              ... Direct
DFT GridXC                     ... 1
COSX GridX                     ... 1
COSX IntAccX                   ... 3.067
COSX Algorithm                 ... Auto
Number of perturbations        ... 3
Number of operators            ... 1
Orbital ranges used for CP-SCF:
 Operator 0:  Orbitals   0... 90  to  91...453
Variables per perturbation     ... 33033
DFT calculation                         ... on
XC functional terms                     ... on
Exchange functional (SCF)               ... B88
Exchange functional (CP-SCF)            ... B88
   X-Alpha parameter    XAlpha (SCF)    ...  0.666667
   X-Alpha parameter    XAlpha (CP-SCF) ...  0.666667
   Becke's b parameter  XBeta (SCF)     ...  0.004200
   Becke's b parameter  XBeta (CP-SCF)  ...  0.004200
Correlation functional (SCF)            ... LYP
Correlation functional (CP-SCF)         ... LYP
 LDA part of GGA corr.  LDAOpt (SCF)    ... VWN-5
 LDA part of GGA corr.  LDAOpt (CP-SCF) ... VWN-5
Hybrid DFT                              ... on
   Exchange mixing (SCF)                ...  0.200
   Exchange mixing (CP-SCF)             ...  0.200
   GGA exch. scaling(SCF)               ...  0.720
   GGA exch. scaling (CP-SCF)           ...  0.720
   GGA corr. scaling (SCF)              ...  0.810
   GGA corr. scaling (CP-SCF)           ...  0.810

CP-SCF GRID
-----------

General Integration Accuracy     IntAcc      ... 3.467
Radial Grid Type                 RadialGrid  ... OptM3 with GC (2021)
Angular Grid (max. ang.)         AngularGrid ... 1 (Lebedev-50)
Angular grid pruning method      GridPruning ... 4 (adaptive)
Weight generation scheme         WeightScheme... Becke
Basis function cutoff            BFCut       ... 1.0000e-11
Integration weight cutoff        WCut        ... 1.0000e-14
Angular grids for H and He will be reduced by one unit
Partially contracted basis set               ... off
Rotationally invariant grid construction     ... off

Total number of grid points                  ...    31185
Total number of batches                      ...      507
Average number of points per batch           ...       61
Average number of grid points per atom       ...      709

CP-SCF GRIDX
------------

General Integration Accuracy     IntAcc      ... 3.067
Radial Grid Type                 RadialGrid  ... OptM3 with GC (2021)
Angular Grid (max. ang.)         AngularGrid ... 1 (Lebedev-50)
Angular grid pruning method      GridPruning ... 4 (adaptive)
Weight generation scheme         WeightScheme... Becke
Basis function cutoff            BFCut       ... 1.0000e-11
Integration weight cutoff        WCut        ... 1.0000e-14
Angular grids for H and He will be reduced by one unit
Partially contracted basis set               ... on
Rotationally invariant grid construction     ... off

Total number of grid points                  ...    14371
Total number of batches                      ...      252
Average number of points per batch           ...       57
Average number of grid points per atom       ...      327

Recalculating density on grid  ... done
Calculating the xc-kernel      ... done
Memory available               ... 925.4 MB
Memory needed per perturbation ...  41.1 MB
Perturbations treated per batch... 3
Number of batches              ... 1
     CP-SCF ITERATION   0:   2.0722e+01 (  48.2 sec   0/  3 done)
     CP-SCF ITERATION   1:   1.4147e+00 (  46.0 sec   0/  3 done)
     CP-SCF ITERATION   2:   6.2636e-01 (  49.4 sec   0/  3 done)
     CP-SCF ITERATION   3:   1.6552e-01 (  47.2 sec   0/  3 done)
     CP-SCF ITERATION   4:   5.4815e-02 (  44.6 sec   0/  3 done)
     CP-SCF ITERATION   5:   2.2043e-02 (  46.0 sec   0/  3 done)
     CP-SCF ITERATION   6:   6.7748e-03 (  47.5 sec   0/  3 done)
     CP-SCF ITERATION   7:   2.2319e-03 (  48.6 sec   0/  3 done)
     CP-SCF ITERATION   8:   7.9688e-04 (  47.9 sec   0/  3 done)
     CP-SCF ITERATION   9:   3.0015e-04 (  45.0 sec   1/  3 done)
     CP-SCF ITERATION  10:   8.6103e-05 (  41.9 sec   3/  3 done)
                    *** THE CP-SCF HAS CONVERGED ***
done
Reading CP-SCF coefficients                    ... done
Doing the polarizability tensor                ... done
Cleaning up                                    ... done

-------------------------
THE POLARIZABILITY TENSOR
-------------------------

The raw cartesian tensor (atomic units):
  335.30558      3.82582      9.76326  
    3.82582    301.22837    -28.83415  
    9.76326    -28.83415    125.59802  
diagonalized tensor: 
  120.49663    305.67558    335.95976  

   -0.04765     -0.07383     -0.99613  
    0.15835      0.98409     -0.08051  
    0.98623     -0.16158     -0.03520  

Isotropic polarizability : 254.04399


Timings for individual modules:

Sum of individual times         ...      938.796 sec (=  15.647 min)
GTO integral calculation        ...        1.787 sec (=   0.030 min)   0.2 %
SCF iterations                  ...      419.926 sec (=   6.999 min)  44.7 %
Solution of CP-SCF eqns.        ...      517.083 sec (=   8.618 min)  55.1 %
                             ****ORCA TERMINATED NORMALLY****
TOTAL RUN TIME: 0 days 0 hours 15 minutes 39 seconds 867 msec
