
                                 *****************
                                 * O   R   C   A *
                                 *****************

                                            #,                                       
                                            ###                                      
                                            ####                                     
                                            #####                                    
                                            ######                                   
                                           ########,                                 
                                     ,,################,,,,,                         
                               ,,#################################,,                 
                          ,,##########################################,,             
                       ,#########################################, ''#####,          
                    ,#############################################,,   '####,        
                  ,##################################################,,,,####,       
                ,###########''''           ''''###############################       
              ,#####''   ,,,,##########,,,,          '''####'''          '####       
            ,##' ,,,,###########################,,,                        '##       
           ' ,,###''''                  '''############,,,                           
         ,,##''                                '''############,,,,        ,,,,,,###''
      ,#''                                            '''#######################'''  
     '                                                          ''''####''''         
             ,#######,   #######,   ,#######,      ##                                
            ,#'     '#,  ##    ##  ,#'     '#,    #''#        ######   ,####,        
            ##       ##  ##   ,#'  ##            #'  '#       #        #'  '#        
            ##       ##  #######   ##           ,######,      #####,   #    #        
            '#,     ,#'  ##    ##  '#,     ,#' ,#      #,         ##   #,  ,#        
             '#######'   ##     ##  '#######'  #'      '#     #####' # '####'        



                  #######################################################
                  #                        -***-                        #
                  #          Department of theory and spectroscopy      #
                  #    Directorship and core code : Frank Neese         #
                  #        Max Planck Institute fuer Kohlenforschung    #
                  #                Kaiser Wilhelm Platz 1               #
                  #                 D-45470 Muelheim/Ruhr               #
                  #                      Germany                        #
                  #                                                     #
                  #                  All rights reserved                #
                  #                        -***-                        #
                  #######################################################


                         Program Version 5.0.3 -  RELEASE  -


 With contributions from (in alphabetic order):
   Daniel Aravena         : Magnetic Suceptibility
   Michael Atanasov       : Ab Initio Ligand Field Theory (pilot matlab implementation)
   Alexander A. Auer      : GIAO ZORA, VPT2 properties, NMR spectrum
   Ute Becker             : Parallelization
   Giovanni Bistoni       : ED, misc. LED, open-shell LED, HFLD
   Martin Brehm           : Molecular dynamics
   Dmytro Bykov           : SCF Hessian
   Vijay G. Chilkuri      : MRCI spin determinant printing, contributions to CSF-ICE
   Dipayan Datta          : RHF DLPNO-CCSD density
   Achintya Kumar Dutta   : EOM-CC, STEOM-CC
   Dmitry Ganyushin       : Spin-Orbit,Spin-Spin,Magnetic field MRCI
   Miquel Garcia          : C-PCM and meta-GGA Hessian, CC/C-PCM, Gaussian charge scheme
   Yang Guo               : DLPNO-NEVPT2, F12-NEVPT2, CIM, IAO-localization
   Andreas Hansen         : Spin unrestricted coupled pair/coupled cluster methods
   Benjamin Helmich-Paris : MC-RPA, TRAH-SCF, COSX integrals
   Lee Huntington         : MR-EOM, pCC
   Robert Izsak           : Overlap fitted RIJCOSX, COSX-SCS-MP3, EOM
   Marcus Kettner         : VPT2
   Christian Kollmar      : KDIIS, OOCD, Brueckner-CCSD(T), CCSD density, CASPT2, CASPT2-K
   Simone Kossmann        : Meta GGA functionals, TD-DFT gradient, OOMP2, MP2 Hessian
   Martin Krupicka        : Initial AUTO-CI
   Lucas Lang             : DCDCAS
   Marvin Lechner         : AUTO-CI (C++ implementation), FIC-MRCC
   Dagmar Lenk            : GEPOL surface, SMD
   Dimitrios Liakos       : Extrapolation schemes; Compound Job, initial MDCI parallelization
   Dimitrios Manganas     : Further ROCIS development; embedding schemes
   Dimitrios Pantazis     : SARC Basis sets
   Anastasios Papadopoulos: AUTO-CI, single reference methods and gradients
   Taras Petrenko         : DFT Hessian,TD-DFT gradient, ASA, ECA, R-Raman, ABS, FL, XAS/XES, NRVS
   Peter Pinski           : DLPNO-MP2, DLPNO-MP2 Gradient
   Christoph Reimann      : Effective Core Potentials
   Marius Retegan         : Local ZFS, SOC
   Christoph Riplinger    : Optimizer, TS searches, QM/MM, DLPNO-CCSD(T), (RO)-DLPNO pert. Triples
   Tobias Risthaus        : Range-separated hybrids, TD-DFT gradient, RPA, STAB
   Michael Roemelt        : Original ROCIS implementation
   Masaaki Saitow         : Open-shell DLPNO-CCSD energy and density
   Barbara Sandhoefer     : DKH picture change effects
   Avijit Sen             : IP-ROCIS
   Kantharuban Sivalingam : CASSCF convergence, NEVPT2, FIC-MRCI
   Bernardo de Souza      : ESD, SOC TD-DFT
   Georgi Stoychev        : AutoAux, RI-MP2 NMR, DLPNO-MP2 response
   Willem Van den Heuvel  : Paramagnetic NMR
   Boris Wezisla          : Elementary symmetry handling
   Frank Wennmohs         : Technical directorship


 We gratefully acknowledge several colleagues who have allowed us to
 interface, adapt or use parts of their codes:
   Stefan Grimme, W. Hujo, H. Kruse, P. Pracht,  : VdW corrections, initial TS optimization,
                  C. Bannwarth, S. Ehlert          DFT functionals, gCP, sTDA/sTD-DF
   Ed Valeev, F. Pavosevic, A. Kumar             : LibInt (2-el integral package), F12 methods
   Garnet Chan, S. Sharma, J. Yang, R. Olivares  : DMRG
   Ulf Ekstrom                                   : XCFun DFT Library
   Mihaly Kallay                                 : mrcc  (arbitrary order and MRCC methods)
   Jiri Pittner, Ondrej Demel                    : Mk-CCSD
   Frank Weinhold                                : gennbo (NPA and NBO analysis)
   Christopher J. Cramer and Donald G. Truhlar   : smd solvation model
   Lars Goerigk                                  : TD-DFT with DH, B97 family of functionals
   V. Asgeirsson, H. Jonsson                     : NEB implementation
   FAccTs GmbH                                   : IRC, NEB, NEB-TS, DLPNO-Multilevel, CI-OPT
                                                   MM, QMMM, 2- and 3-layer-ONIOM, Crystal-QMMM,
                                                   LR-CPCM, SF, NACMEs, symmetry and pop. for TD-DFT,
                                                   nearIR, NL-DFT gradient (VV10), updates on ESD,
                                                   ML-optimized integration grids
   S Lehtola, MJT Oliveira, MAL Marques          : LibXC Library
   Liviu Ungur et al                             : ANISO software


 Your calculation uses the libint2 library for the computation of 2-el integrals
 For citations please refer to: http://libint.valeyev.net

 Your ORCA version has been built with support for libXC version: 5.1.0
 For citations please refer to: https://tddft.org/programs/libxc/

 This ORCA versions uses:
   CBLAS   interface :  Fast vector & matrix operations
   LAPACKE interface :  Fast linear algebra routines
   SCALAPACK package :  Parallel linear algebra routines
   Shared memory     :  Shared parallel matrices
   BLAS/LAPACK       :  OpenBLAS 0.3.15  USE64BITINT DYNAMIC_ARCH NO_AFFINITY Zen SINGLE_THREADED
        Core in use  :  Zen
   Copyright (c) 2011-2014, The OpenBLAS Project




***************************************
The coordinates will be read from file: _15.xyz
***************************************


================================================================================

----- Orbital basis set information -----
Your calculation utilizes the basis: def2-SVP
   F. Weigend and R. Ahlrichs, Phys. Chem. Chem. Phys. 7, 3297 (2005).

----- AuxJ basis set information -----
Your calculation utilizes the auxiliary basis: def2/J
   F. Weigend, Phys. Chem. Chem. Phys. 8, 1057 (2006).

================================================================================
                                        WARNINGS
                       Please study these warnings very carefully!
================================================================================


INFO   : the flag for use of the SHARK integral package has been found!

================================================================================
                                       INPUT FILE
================================================================================
NAME = 15.inp
|  1> ! B3LYP DEF2-SVP TightSCF
|  2> %elprop
|  3> Polar 1
|  4> end
|  5> * xyzfile 0 1 _15.xyz
|  6> 
|  7>                          ****END OF INPUT****
================================================================================

                       ****************************
                       * Single Point Calculation *
                       ****************************

---------------------------------
CARTESIAN COORDINATES (ANGSTROEM)
---------------------------------
  C     -7.026703    4.197667   -0.402507
  C     -7.128280    2.892372   -1.124055
  O     -7.003456    1.778822   -0.343642
  C     -5.789733    1.656884    0.289604
  C     -5.816248    0.383869    1.137094
  N     -6.047083   -0.799702    0.355207
  C     -7.314240   -1.270730    0.101771
  C     -8.567873   -0.817120    0.451620
  C     -9.685191   -1.501075    0.053914
  C     -9.511692   -2.641078   -0.696772
  C     -8.263081   -3.095981   -1.047755
  C     -7.142654   -2.410011   -0.648600
  N     -5.832133   -2.593357   -0.824521
  C     -5.147871   -1.591643   -0.200256
  N     -3.703725   -1.479766   -0.206763
  C     -3.089998   -1.972943    0.985533
  C     -2.325599   -0.969092    1.778153
  C     -1.917294    0.225012    0.938530
  N     -1.145817   -0.150127   -0.189030
  C     -1.820210   -0.391203   -1.398207
  C     -3.175751   -0.942242   -1.417012
  C     -0.021460   -1.001850    0.110795
  C      1.047021   -0.286118    0.892449
  C      2.203960   -1.193368    1.233550
  C      3.246956   -0.387809    2.046423
  C      4.527590   -0.977599    1.379726
  N      4.136577   -0.859402    0.026419
  C      2.868448   -1.675973    0.024591
  C      4.602070   -0.222049   -1.111588
  O      3.892651   -0.432159   -2.206827
  C      5.730564    0.643369   -1.336562
  C      6.599583    1.096454   -0.376632
  C      7.694564    1.912313   -0.632235
  C      7.928408    2.292801   -1.914272
  C      7.091818    1.881728   -2.976946
  C      6.007206    1.057453   -2.628837
  O      7.342148    2.261119   -4.174139
  C      7.365820    2.492604   -5.437091
  O      9.025699    3.111299   -2.190189
  C      8.958360    4.512228   -2.190918
  O      8.547477    2.340418    0.402100
  C      8.220764    1.903935    1.707515
  C      1.681089   -2.195989    2.174332
  C      1.234980   -1.716539    3.397177
  C      0.723602   -2.565629    4.358936
  C      0.640903   -3.922914    4.131554
  C      1.082813   -4.401510    2.919580
  C      1.600260   -3.546717    1.945141
  Cl     0.689454    0.000000    0.000000
  Cl     0.686342    0.000000    0.000000
  H     -6.690349    4.047445    0.626212
  H     -8.045344    4.684643   -0.307650
  H     -6.402776    4.924401   -0.953972
  H     -8.126168    2.836343   -1.649509
  H     -6.385360    2.897453   -1.977469
  H     -5.032118    1.456089   -0.511979
  H     -5.446759    2.514253    0.867056
  H     -6.676268    0.494928    1.848381
  H     -4.915497    0.330638    1.741234
  H     -8.655610    0.073500    1.034451
  H    -10.700727   -1.184626    0.302879
  H    -10.392748   -3.195028   -1.016282
  H     -8.114432   -3.997460   -1.641335
  H     -3.865545   -2.451273    1.665159
  H     -2.456997   -2.874693    0.710546
  H     -2.945148   -0.595948    2.604240
  H     -1.427297   -1.442155    2.275564
  H     -2.863457    0.680070    0.571279
  H     -1.440492    0.952872    1.605550
  H     -1.163804   -0.969844   -2.114377
  H     -1.869165    0.627088   -1.930152
  H     -3.261791   -1.762403   -2.237281
  H     -3.893653   -0.142988   -1.783793
  H     -0.281961   -1.909266    0.661905
  H      0.403926   -1.317079   -0.861589
  H      0.633675    0.243466    1.787909
  H      1.503904    0.550218    0.280535
  H      3.278317   -0.664223    3.088882
  H      3.160242    0.678936    1.859044
  H      4.451021   -2.092535    1.625088
  H      5.406708   -0.546070    1.774968
  H      2.355432   -1.556283   -0.938075
  H      3.275676   -2.702315    0.058335
  H      6.450589    0.834642    0.634520
  H      5.389894    0.764291   -3.463522
  H      6.408952    2.916092   -5.923185
  H      7.618349    1.608959   -6.124661
  H      8.109148    3.316699   -5.701006
  H      8.074200    4.938279   -2.673921
  H      8.895529    4.812438   -1.103641
  H      9.842298    4.963224   -2.668505
  H      8.178579    0.798428    1.777225
  H      7.246609    2.369573    2.004278
  H      8.977110    2.255307    2.441342
  H      1.281148   -0.647756    3.626916
  H      0.375709   -2.182016    5.316710
  H      0.236772   -4.611520    4.887356
  H      1.029066   -5.451710    2.721855
  H      1.945372   -3.901732    1.001432
  H     -0.689454    0.000000    0.000000
  H     -0.686342    0.000000    0.000000

----------------------------
CARTESIAN COORDINATES (A.U.)
----------------------------
  NO LB      ZA    FRAG     MASS         X           Y           Z
   0 C     6.0000    0    12.011  -13.278544    7.932441   -0.760628
   1 C     6.0000    0    12.011  -13.470497    5.465791   -2.124156
   2 O     8.0000    0    15.999  -13.234614    3.361486   -0.649389
   3 C     6.0000    0    12.011  -10.941010    3.131057    0.547272
   4 C     6.0000    0    12.011  -10.991116    0.725407    2.148796
   5 N     7.0000    0    14.007  -11.427331   -1.511218    0.671244
   6 C     6.0000    0    12.011  -13.821910   -2.401332    0.192319
   7 C     6.0000    0    12.011  -16.190934   -1.544133    0.853438
   8 C     6.0000    0    12.011  -18.302359   -2.836621    0.101883
   9 C     6.0000    0    12.011  -17.974493   -4.990914   -1.316708
  10 C     6.0000    0    12.011  -15.614960   -5.850556   -1.979970
  11 C     6.0000    0    12.011  -13.497660   -4.554261   -1.225676
  12 N     7.0000    0    14.007  -11.021134   -4.900734   -1.558119
  13 C     6.0000    0    12.011   -9.728066   -3.007769   -0.378429
  14 N     7.0000    0    14.007   -6.999026   -2.796352   -0.390725
  15 C     6.0000    0    12.011   -5.839250   -3.728322    1.862387
  16 C     6.0000    0    12.011   -4.394745   -1.831318    3.360222
  17 C     6.0000    0    12.011   -3.623161    0.425211    1.773565
  18 N     7.0000    0    14.007   -2.165280   -0.283699   -0.357215
  19 C     6.0000    0    12.011   -3.439698   -0.739267   -2.642228
  20 C     6.0000    0    12.011   -6.001300   -1.780579   -2.677765
  21 C     6.0000    0    12.011   -0.040554   -1.893222    0.209372
  22 C     6.0000    0    12.011    1.978583   -0.540685    1.686484
  23 C     6.0000    0    12.011    4.164881   -2.255139    2.331072
  24 C     6.0000    0    12.011    6.135858   -0.732853    3.867179
  25 C     6.0000    0    12.011    8.555905   -1.847394    2.607304
  26 N     7.0000    0    14.007    7.816998   -1.624034    0.049925
  27 C     6.0000    0    12.011    5.420581   -3.167130    0.046470
  28 C     6.0000    0    12.011    8.696652   -0.419612   -2.100597
  29 O     8.0000    0    15.999    7.356044   -0.816662   -4.170299
  30 C     6.0000    0    12.011   10.829197    1.215791   -2.525736
  31 C     6.0000    0    12.011   12.471404    2.071998   -0.711731
  32 C     6.0000    0    12.011   14.540619    3.613748   -1.194751
  33 C     6.0000    0    12.011   14.982520    4.332766   -3.617450
  34 C     6.0000    0    12.011   13.401594    3.555951   -5.625613
  35 C     6.0000    0    12.011   11.351974    1.998297   -4.967782
  36 O     8.0000    0    15.999   13.874649    4.272896   -7.887980
  37 C     6.0000    0    12.011   13.919383    4.710339  -10.274613
  38 O     8.0000    0    15.999   17.056099    5.879503   -4.138857
  39 C     6.0000    0    12.011   16.928847    8.526875   -4.140235
  40 O     8.0000    0    15.999   16.152391    4.422749    0.759859
  41 C     6.0000    0    12.011   15.534993    3.597916    3.226736
  42 C     6.0000    0    12.011    3.176798   -4.149818    4.108892
  43 C     6.0000    0    12.011    2.333774   -3.243789    6.419734
  44 C     6.0000    0    12.011    1.367410   -4.848336    8.237195
  45 C     6.0000    0    12.011    1.211131   -7.413233    7.807506
  46 C     6.0000    0    12.011    2.046220   -8.317648    5.517207
  47 C     6.0000    0    12.011    3.024053   -6.702324    3.675784
  48 Cl   17.0000    0    35.453    1.302879    0.000000    0.000000
  49 Cl   17.0000    0    35.453    1.296998    0.000000    0.000000
  50 H     1.0000    0     1.008  -12.642927    7.648563    1.183369
  51 H     1.0000    0     1.008  -15.203497    8.852692   -0.581374
  52 H     1.0000    0     1.008  -12.099493    9.305769   -1.802746
  53 H     1.0000    0     1.008  -15.356232    5.359911   -3.117120
  54 H     1.0000    0     1.008  -12.066582    5.475393   -3.736875
  55 H     1.0000    0     1.008   -9.509325    2.751609   -0.967500
  56 H     1.0000    0     1.008  -10.292883    4.751250    1.638498
  57 H     1.0000    0     1.008  -12.616318    0.935278    3.492934
  58 H     1.0000    0     1.008   -9.288943    0.624815    3.290455
  59 H     1.0000    0     1.008  -16.356732    0.138895    1.954829
  60 H     1.0000    0     1.008  -20.221443   -2.238619    0.572358
  61 H     1.0000    0     1.008  -19.639447   -6.037728   -1.920495
  62 H     1.0000    0     1.008  -15.334054   -7.554105   -3.101674
  63 H     1.0000    0     1.008   -7.304821   -4.632235    3.146694
  64 H     1.0000    0     1.008   -4.643051   -5.432382    1.342737
  65 H     1.0000    0     1.008   -5.565523   -1.126179    4.921300
  66 H     1.0000    0     1.008   -2.697200   -2.725278    4.300193
  67 H     1.0000    0     1.008   -5.411150    1.285146    1.079561
  68 H     1.0000    0     1.008   -2.722135    1.800667    3.034050
  69 H     1.0000    0     1.008   -2.199271   -1.832740   -3.995593
  70 H     1.0000    0     1.008   -3.532210    1.185025   -3.647459
  71 H     1.0000    0     1.008   -6.163892   -3.330459   -4.227848
  72 H     1.0000    0     1.008   -7.357938   -0.270208   -3.370880
  73 H     1.0000    0     1.008   -0.532829   -3.607990    1.250819
  74 H     1.0000    0     1.008    0.763310   -2.488919   -1.628167
  75 H     1.0000    0     1.008    1.197472    0.460084    3.378658
  76 H     1.0000    0     1.008    2.841967    1.039761    0.530134
  77 H     1.0000    0     1.008    6.195121   -1.255200    5.837141
  78 H     1.0000    0     1.008    5.971992    1.283003    3.513084
  79 H     1.0000    0     1.008    8.411211   -3.954318    3.070971
  80 H     1.0000    0     1.008   10.217197   -1.031923    3.354203
  81 H     1.0000    0     1.008    4.451121   -2.940949   -1.772705
  82 H     1.0000    0     1.008    6.190131   -5.106635    0.110237
  83 H     1.0000    0     1.008   12.189847    1.577245    1.199069
  84 H     1.0000    0     1.008   10.185424    1.444301   -6.545108
  85 H     1.0000    0     1.008   12.111164    5.510615  -11.193197
  86 H     1.0000    0     1.008   14.396593    3.040492  -11.573932
  87 H     1.0000    0     1.008   15.324069    6.267653  -10.773340
  88 H     1.0000    0     1.008   15.258027    9.331995   -5.052978
  89 H     1.0000    0     1.008   16.810114    9.094190   -2.085579
  90 H     1.0000    0     1.008   18.599248    9.379134   -5.042744
  91 H     1.0000    0     1.008   15.455274    1.508810    3.358469
  92 H     1.0000    0     1.008   13.694106    4.477844    3.787537
  93 H     1.0000    0     1.008   16.964279    4.261913    4.613468
  94 H     1.0000    0     1.008    2.421019   -1.224081    6.853878
  95 H     1.0000    0     1.008    0.709987   -4.123413   10.047126
  96 H     1.0000    0     1.008    0.447434   -8.714510    9.235764
  97 H     1.0000    0     1.008    1.944653  -10.302239    5.143561
  98 H     1.0000    0     1.008    3.676220   -7.373205    1.892432
  99 H     1.0000    0     1.008   -1.302879    0.000000    0.000000
 100 H     1.0000    0     1.008   -1.296998    0.000000    0.000000

--------------------------------
INTERNAL COORDINATES (ANGSTROEM)
--------------------------------
 C      0   0   0     0.000000000000     0.00000000     0.00000000
 C      1   0   0     1.494906164366     0.00000000     0.00000000
 O      2   1   0     1.365510558013   115.46641593     0.00000000
 C      3   2   1     1.374406378437   114.60730034   297.88968893
 C      4   3   2     1.529545532356   108.28956164   178.99393677
 N      5   4   3     1.437175142436   112.75297277    59.77206041
 C      6   5   4     1.375421406526   122.02238305   270.45280913
 C      7   6   5     1.378314932659   132.72434615     0.73930092
 C      8   7   6     1.369074146124   120.27431294   180.04847787
 C      9   8   7     1.375949931359   118.00101849     0.00000000
 C     10   9   8     1.374465436095   121.87578350   359.97659043
 C     11  10   9     1.373039044330   120.11342859     0.03477304
 N     12  11  10     1.334926681656   133.96132380   179.97435816
 C      6   5   4     1.320716439208   127.82669712    91.34019628
 N     14   6   5     1.448487650446   129.37450322   358.43249085
 C     15  14   6     1.428794644263   113.44356929    81.57399605
 C     16  15  14     1.490056752544   115.57581904   241.93399805
 C     17  16  15     1.515771789542   111.97885872   338.83280903
 N     18  17  16     1.416791298833   112.26753079   302.74705426
 C     19  18  17     1.405358521358   117.96132950    92.42085941
 C     15  14   6     1.425619597667   113.71406403   259.58281642
 C     19  18  17     1.442049154087   114.54952966   308.83660554
 C     22  19  18     1.504960769888   112.37426599   291.68782184
 C     23  22  19     1.509291325232   112.06944435   178.50756082
 C     24  23  22     1.548395450983   108.79955228   180.59264239
 C     25  24  23     1.559602698082    97.58233451   220.11556478
 N     26  25  24     1.413612936142    98.65554184    47.24539419
 C     24  23  22     1.461517619411   111.10382191    62.50377626
 C     27  26  25     1.384905235641   137.06898428   120.62689051
 O     29  27  26     1.321729925810   115.29930017   178.46847922
 C     29  27  26     1.439812600110   131.94804291   358.38485092
 C     31  29  27     1.371840240147   125.85105753   356.28334836
 C     32  31  29     1.389223593181   124.36873329   178.76734843
 C     33  32  31     1.357598248323   118.30130678     0.03994849
 C     34  33  32     1.413555754014   121.76831184     0.03401824
 C     31  29  27     1.384908311350   118.82138018   175.11459000
 O     35  34  33     1.280575542102   120.06443610   179.93511383
 C     37  35  34     1.284209259861   167.53244753   180.17680481
 O     34  33  32     1.396465791050   119.09119973   180.09139544
 C     39  34  33     1.402546660687   123.21770216   269.54451817
 O     33  32  31     1.407332003764   121.40660609   180.04509609
 C     41  33  32     1.414696828258   116.38305425   359.50164679
 C     24  23  22     1.470956737571   106.36698913   293.19583900
 C     43  24  23     1.387168135594   116.26587752   296.19095374
 C     44  43  24     1.381101611419   121.36341219   180.00493086
 C     45  44  43     1.378682077112   120.83784320     0.00000000
 C     46  45  44     1.375943151439   117.93313562     0.00000000
 C     43  24  23     1.372416835989   125.80070291   116.22545068
 Cl    23  22  19     1.003086679711    54.58278526   303.03163170
 Cl    49  23  22     0.003112000000   110.88336193    48.61441435
 H      1   2   3     1.092686342717   110.81116922    10.01294466
 H      1   2   3     1.133037052309   110.76910811   254.02326776
 H      1   2   3     1.105233393592   111.81826399   136.69685375
 H      2   1   3     1.129168550528   109.14645080   121.63118793
 H      2   1   3     1.131490785803   108.39185006   233.43585864
 H      4   3   2     1.121086270605   106.45351486   291.44151706
 H      4   3   2     1.089111371321   116.90676203    52.05033418
 H      5   4   3     1.121560385467   106.39588518   301.97319909
 H      5   4   3     1.085896423680   109.55321431   186.93783255
 H      8   7   6     1.067985833300   119.18873742     0.13201117
 H      9   8   7     1.092445379926   123.21227681   180.06202181
 H     10   9   8     1.088672089169   118.66247217   179.81769338
 H     11  10   9     1.089540329241   122.47285419   179.97189485
 H     16  15  14     1.136734022533   110.55461785     5.50433033
 H     16  15  14     1.135544441521   108.14779375   115.22959504
 H     17  16  15     1.097951337586   109.85930085    98.23450452
 H     17  16  15     1.130554195116   111.08495540   214.02035003
 H     18  17  16     1.112283912917   106.02474752    60.43956779
 H     18  17  16     1.096374027056   107.64636121   175.15053155
 H     20  19  18     1.130749182010   110.74191944   197.07612781
 H     20  19  18     1.149903750638   105.45881844    89.02594892
 H     21  15  14     1.163145811961   107.78336605   286.51820224
 H     21  15  14     1.135217397718   107.79060374    36.85673534
 H     22  19  18     1.093154517969   114.16063579    54.55826603
 H     22  19  18     1.107182557166   106.56611770   172.86439768
 H     23  22  19     1.119447515684   112.22828981    50.45521920
 H     49  23  22     1.022139196122    67.99551713   188.57987650
 H     25  24  23     1.078938820507   113.17386802   107.92348843
 H     25  24  23     1.086542729239   111.49880989   336.61012471
 H     26  25  24     1.144179883978   102.81953793   299.00962291
 H     26  25  24     1.056069114371   111.65580896   178.83571180
 H     28  24  23     1.097377300618   118.49525357   345.54416245
 H     28  24  23     1.104695072173   116.68733676   214.58536571
 H     32  31  29     1.055070188416   119.94697105   358.13597436
 H     36  31  29     1.078757207537   121.76449880     1.19369626
 H     38  37  35     1.153787602813   117.72336272    53.47516762
 H     38  37  35     1.147759507373   117.02748117   290.94198674
 H     38  37  35     1.140754229374   111.70028697   168.64386551
 H     40  39  34     1.093869397236   115.34561650   317.12776551
 H     40  39  34     1.129710163445   105.52175594    73.81364085
 H     40  39  34     1.101287029992   111.76088844   194.18141698
 H     42  41  33     1.108505654191   111.99448462    57.47238127
 H     42  41  33     1.119761130437   108.49143599   294.09914998
 H     42  41  33     1.110866157568   110.77692993   177.41206450
 H     44  43  24     1.094170276252   120.60636475   359.90128219
 H     45  44  43     1.088815644769   120.94820148   179.97437818
 H     46  45  44     1.099425646236   121.68720408   179.97043289
 H     47  46  45     1.070001848426   119.21117484   179.93404719
 H     48  43  24     1.065703814129   117.17253970   359.90294061
 H     19  18  17     0.516272839493    96.48500592   256.05578974
 H    100  19  18     0.003112000000   152.12344368   163.17403928

---------------------------
INTERNAL COORDINATES (A.U.)
---------------------------
 C      0   0   0     0.000000000000     0.00000000     0.00000000
 C      1   0   0     2.824963246561     0.00000000     0.00000000
 O      2   1   0     2.580440987623   115.46641593     0.00000000
 C      3   2   1     2.597251651961   114.60730034   297.88968893
 C      4   3   2     2.890422165516   108.28956164   178.99393677
 N      5   4   3     2.715867425683   112.75297277    59.77206041
 C      6   5   4     2.599169777066   122.02238305   270.45280913
 C      7   6   5     2.604637749019   132.72434615     0.73930092
 C      8   7   6     2.587175193206   120.27431294   180.04847787
 C      9   8   7     2.600168544256   118.00101849     0.00000000
 C     10   9   8     2.597363254760   121.87578350   359.97659043
 C     11  10   9     2.594667764964   120.11342859     0.03477304
 N     12  11  10     2.522645837195   133.96132380   179.97435816
 C      6   5   4     2.495792370671   127.82669712    91.34019628
 N     14   6   5     2.737244967710   129.37450322   358.43249085
 C     15  14   6     2.700030579270   113.44356929    81.57399605
 C     16  15  14     2.815799186308   115.57581904   241.93399805
 C     17  16  15     2.864393563757   111.97885872   338.83280903
 N     18  17  16     2.677347543718   112.26753079   302.74705426
 C     19  18  17     2.655742725339   117.96132950    92.42085941
 C     15  14   6     2.694030610742   113.71406403   259.58281642
 C     19  18  17     2.725077972877   114.54952966   308.83660554
 C     22  19  18     2.843963697383   112.37426599   291.68782184
 C     23  22  19     2.852147260992   112.06944435   178.50756082
 C     24  23  22     2.926043349368   108.79955228   180.59264239
 C     25  24  23     2.947221977100    97.58233451   220.11556478
 N     26  25  24     2.671341308676    98.65554184    47.24539419
 C     24  23  22     2.761868040588   111.10382191    62.50377626
 C     27  26  25     2.617091616796   137.06898428   120.62689051
 O     29  27  26     2.497707582789   115.29930017   178.46847922
 C     29  27  26     2.720851498377   131.94804291   358.38485092
 C     31  29  27     2.592402353370   125.85105753   356.28334836
 C     32  31  29     2.625252129894   124.36873329   178.76734843
 C     33  32  31     2.565488889221   118.30130678     0.03994849
 C     34  33  32     2.671233250114   121.76831184     0.03401824
 C     31  29  27     2.617097429042   118.82138018   175.11459000
 O     35  34  33     2.419937068371   120.06443610   179.93511383
 C     37  35  34     2.426803799783   167.53244753   180.17680481
 O     34  33  32     2.638937900475   119.09119973   180.09139544
 C     39  34  33     2.650429078743   123.21770216   269.54451817
 O     33  32  31     2.659472066617   121.40660609   180.04509609
 C     41  33  32     2.673389567934   116.38305425   359.50164679
 C     24  23  22     2.779705388856   106.36698913   293.19583900
 C     43  24  23     2.621367877974   116.26587752   296.19095374
 C     44  43  24     2.609903808700   121.36341219   180.00493086
 C     45  44  43     2.605331551487   120.83784320     0.00000000
 C     46  45  44     2.600155732064   117.93313562     0.00000000
 C     43  24  23     2.593491961602   125.80070291   116.22545068
 Cl    23  22  19     1.895559113239    54.58278526   303.03163170
 Cl    49  23  22     0.005880827729   110.88336193    48.61441435
 H      1   2   3     2.064877938012   110.81116922    10.01294466
 H      1   2   3     2.141129728450   110.76910811   254.02326776
 H      1   2   3     2.088588427953   111.81826399   136.69685375
 H      2   1   3     2.133819319534   109.14645080   121.63118793
 H      2   1   3     2.138207708223   108.39185006   233.43585864
 H      4   3   2     2.118546023943   106.45351486   291.44151706
 H      4   3   2     2.058122221136   116.90676203    52.05033418
 H      5   4   3     2.119441971189   106.39588518   301.97319909
 H      5   4   3     2.052046850561   109.55321431   186.93783255
 H      8   7   6     2.018200739845   119.18873742     0.13201117
 H      9   8   7     2.064422584328   123.21227681   180.06202181
 H     10   9   8     2.057292098174   118.66247217   179.81769338
 H     11  10   9     2.058932834127   122.47285419   179.97189485
 H     16  15  14     2.148115989699   110.55461785     5.50433033
 H     16  15  14     2.145868007372   108.14779375   115.22959504
 H     17  16  15     2.074827336409   109.85930085    98.23450452
 H     17  16  15     2.136437808325   111.08495540   214.02035003
 H     18  17  16     2.101911978579   106.02474752    60.43956779
 H     18  17  16     2.071846651481   107.64636121   175.15053155
 H     20  19  18     2.136806280155   110.74191944   197.07612781
 H     20  19  18     2.173003169074   105.45881844    89.02594892
 H     21  15  14     2.198027038423   107.78336605   286.51820224
 H     21  15  14     2.145249984149   107.79060374    36.85673534
 H     22  19  18     2.065762661021   114.16063579    54.55826603
 H     22  19  18     2.092271813299   106.56611770   172.86439768
 H     23  22  19     2.115449225942   112.22828981    50.45521920
 H     49  23  22     1.931563151417    67.99551713   188.57987650
 H     25  24  23     2.038898886015   113.17386802   107.92348843
 H     25  24  23     2.053268191065   111.49880989   336.61012471
 H     26  25  24     2.162186628661   102.81953793   299.00962291
 H     26  25  24     1.995681404655   111.65580896   178.83571180
 H     28  24  23     2.073742563750   118.49525357   345.54416245
 H     28  24  23     2.087571147900   116.68733676   214.58536571
 H     32  31  29     1.993793708171   119.94697105   358.13597436
 H     36  31  29     2.038555687239   121.76449880     1.19369626
 H     38  37  35     2.180342586029   117.72336272    53.47516762
 H     38  37  35     2.168951136540   117.02748117   290.94198674
 H     38  37  35     2.155713079629   111.70028697   168.64386551
 H     40  39  34     2.067113587054   115.34561650   317.12776551
 H     40  39  34     2.134842819618   105.52175594    73.81364085
 H     40  39  34     2.081130881525   111.76088844   194.18141698
 H     42  41  33     2.094772104325   111.99448462    57.47238127
 H     42  41  33     2.116041871936   108.49143599   294.09914998
 H     42  41  33     2.099232809244   110.77692993   177.41206450
 H     44  43  24     2.067682165994   120.60636475   359.90128219
 H     45  44  43     2.057563378943   120.94820148   179.97437818
 H     46  45  44     2.077613375995   121.68720408   179.97043289
 H     47  46  45     2.022010456314   119.21117484   179.93404719
 H     48  43  24     2.013888348580   117.17253970   359.90294061
 H     19  18  17     0.975614277023    96.48500592   256.05578974
 H    100  19  18     0.005880827729   152.12344368   163.17403928

---------------------
BASIS SET INFORMATION
---------------------
There are 5 groups of distinct atoms

 Group   1 Type C   : 7s4p1d contracted to 3s2p1d pattern {511/31/1}
 Group   2 Type O   : 7s4p1d contracted to 3s2p1d pattern {511/31/1}
 Group   3 Type N   : 7s4p1d contracted to 3s2p1d pattern {511/31/1}
 Group   4 Type Cl  : 10s7p1d contracted to 4s3p1d pattern {5311/511/1}
 Group   5 Type H   : 4s1p contracted to 2s1p pattern {31/1}

Atom   0C    basis set group =>   1
Atom   1C    basis set group =>   1
Atom   2O    basis set group =>   2
Atom   3C    basis set group =>   1
Atom   4C    basis set group =>   1
Atom   5N    basis set group =>   3
Atom   6C    basis set group =>   1
Atom   7C    basis set group =>   1
Atom   8C    basis set group =>   1
Atom   9C    basis set group =>   1
Atom  10C    basis set group =>   1
Atom  11C    basis set group =>   1
Atom  12N    basis set group =>   3
Atom  13C    basis set group =>   1
Atom  14N    basis set group =>   3
Atom  15C    basis set group =>   1
Atom  16C    basis set group =>   1
Atom  17C    basis set group =>   1
Atom  18N    basis set group =>   3
Atom  19C    basis set group =>   1
Atom  20C    basis set group =>   1
Atom  21C    basis set group =>   1
Atom  22C    basis set group =>   1
Atom  23C    basis set group =>   1
Atom  24C    basis set group =>   1
Atom  25C    basis set group =>   1
Atom  26N    basis set group =>   3
Atom  27C    basis set group =>   1
Atom  28C    basis set group =>   1
Atom  29O    basis set group =>   2
Atom  30C    basis set group =>   1
Atom  31C    basis set group =>   1
Atom  32C    basis set group =>   1
Atom  33C    basis set group =>   1
Atom  34C    basis set group =>   1
Atom  35C    basis set group =>   1
Atom  36O    basis set group =>   2
Atom  37C    basis set group =>   1
Atom  38O    basis set group =>   2
Atom  39C    basis set group =>   1
Atom  40O    basis set group =>   2
Atom  41C    basis set group =>   1
Atom  42C    basis set group =>   1
Atom  43C    basis set group =>   1
Atom  44C    basis set group =>   1
Atom  45C    basis set group =>   1
Atom  46C    basis set group =>   1
Atom  47C    basis set group =>   1
Atom  48Cl   basis set group =>   4
Atom  49Cl   basis set group =>   4
Atom  50H    basis set group =>   5
Atom  51H    basis set group =>   5
Atom  52H    basis set group =>   5
Atom  53H    basis set group =>   5
Atom  54H    basis set group =>   5
Atom  55H    basis set group =>   5
Atom  56H    basis set group =>   5
Atom  57H    basis set group =>   5
Atom  58H    basis set group =>   5
Atom  59H    basis set group =>   5
Atom  60H    basis set group =>   5
Atom  61H    basis set group =>   5
Atom  62H    basis set group =>   5
Atom  63H    basis set group =>   5
Atom  64H    basis set group =>   5
Atom  65H    basis set group =>   5
Atom  66H    basis set group =>   5
Atom  67H    basis set group =>   5
Atom  68H    basis set group =>   5
Atom  69H    basis set group =>   5
Atom  70H    basis set group =>   5
Atom  71H    basis set group =>   5
Atom  72H    basis set group =>   5
Atom  73H    basis set group =>   5
Atom  74H    basis set group =>   5
Atom  75H    basis set group =>   5
Atom  76H    basis set group =>   5
Atom  77H    basis set group =>   5
Atom  78H    basis set group =>   5
Atom  79H    basis set group =>   5
Atom  80H    basis set group =>   5
Atom  81H    basis set group =>   5
Atom  82H    basis set group =>   5
Atom  83H    basis set group =>   5
Atom  84H    basis set group =>   5
Atom  85H    basis set group =>   5
Atom  86H    basis set group =>   5
Atom  87H    basis set group =>   5
Atom  88H    basis set group =>   5
Atom  89H    basis set group =>   5
Atom  90H    basis set group =>   5
Atom  91H    basis set group =>   5
Atom  92H    basis set group =>   5
Atom  93H    basis set group =>   5
Atom  94H    basis set group =>   5
Atom  95H    basis set group =>   5
Atom  96H    basis set group =>   5
Atom  97H    basis set group =>   5
Atom  98H    basis set group =>   5
Atom  99H    basis set group =>   5
Atom 100H    basis set group =>   5
---------------------------------
AUXILIARY/J BASIS SET INFORMATION
---------------------------------
There are 5 groups of distinct atoms

 Group   1 Type C   : 12s5p4d2f1g contracted to 6s4p3d1f1g pattern {711111/2111/211/2/1}
 Group   2 Type O   : 12s5p4d2f1g contracted to 6s4p3d1f1g pattern {711111/2111/211/2/1}
 Group   3 Type N   : 12s5p4d2f1g contracted to 6s4p3d1f1g pattern {711111/2111/211/2/1}
 Group   4 Type Cl  : 14s5p5d2f1g contracted to 8s4p3d1f1g pattern {71111111/2111/311/2/1}
 Group   5 Type H   : 5s2p1d contracted to 3s1p1d pattern {311/2/1}

Atom   0C    basis set group =>   1
Atom   1C    basis set group =>   1
Atom   2O    basis set group =>   2
Atom   3C    basis set group =>   1
Atom   4C    basis set group =>   1
Atom   5N    basis set group =>   3
Atom   6C    basis set group =>   1
Atom   7C    basis set group =>   1
Atom   8C    basis set group =>   1
Atom   9C    basis set group =>   1
Atom  10C    basis set group =>   1
Atom  11C    basis set group =>   1
Atom  12N    basis set group =>   3
Atom  13C    basis set group =>   1
Atom  14N    basis set group =>   3
Atom  15C    basis set group =>   1
Atom  16C    basis set group =>   1
Atom  17C    basis set group =>   1
Atom  18N    basis set group =>   3
Atom  19C    basis set group =>   1
Atom  20C    basis set group =>   1
Atom  21C    basis set group =>   1
Atom  22C    basis set group =>   1
Atom  23C    basis set group =>   1
Atom  24C    basis set group =>   1
Atom  25C    basis set group =>   1
Atom  26N    basis set group =>   3
Atom  27C    basis set group =>   1
Atom  28C    basis set group =>   1
Atom  29O    basis set group =>   2
Atom  30C    basis set group =>   1
Atom  31C    basis set group =>   1
Atom  32C    basis set group =>   1
Atom  33C    basis set group =>   1
Atom  34C    basis set group =>   1
Atom  35C    basis set group =>   1
Atom  36O    basis set group =>   2
Atom  37C    basis set group =>   1
Atom  38O    basis set group =>   2
Atom  39C    basis set group =>   1
Atom  40O    basis set group =>   2
Atom  41C    basis set group =>   1
Atom  42C    basis set group =>   1
Atom  43C    basis set group =>   1
Atom  44C    basis set group =>   1
Atom  45C    basis set group =>   1
Atom  46C    basis set group =>   1
Atom  47C    basis set group =>   1
Atom  48Cl   basis set group =>   4
Atom  49Cl   basis set group =>   4
Atom  50H    basis set group =>   5
Atom  51H    basis set group =>   5
Atom  52H    basis set group =>   5
Atom  53H    basis set group =>   5
Atom  54H    basis set group =>   5
Atom  55H    basis set group =>   5
Atom  56H    basis set group =>   5
Atom  57H    basis set group =>   5
Atom  58H    basis set group =>   5
Atom  59H    basis set group =>   5
Atom  60H    basis set group =>   5
Atom  61H    basis set group =>   5
Atom  62H    basis set group =>   5
Atom  63H    basis set group =>   5
Atom  64H    basis set group =>   5
Atom  65H    basis set group =>   5
Atom  66H    basis set group =>   5
Atom  67H    basis set group =>   5
Atom  68H    basis set group =>   5
Atom  69H    basis set group =>   5
Atom  70H    basis set group =>   5
Atom  71H    basis set group =>   5
Atom  72H    basis set group =>   5
Atom  73H    basis set group =>   5
Atom  74H    basis set group =>   5
Atom  75H    basis set group =>   5
Atom  76H    basis set group =>   5
Atom  77H    basis set group =>   5
Atom  78H    basis set group =>   5
Atom  79H    basis set group =>   5
Atom  80H    basis set group =>   5
Atom  81H    basis set group =>   5
Atom  82H    basis set group =>   5
Atom  83H    basis set group =>   5
Atom  84H    basis set group =>   5
Atom  85H    basis set group =>   5
Atom  86H    basis set group =>   5
Atom  87H    basis set group =>   5
Atom  88H    basis set group =>   5
Atom  89H    basis set group =>   5
Atom  90H    basis set group =>   5
Atom  91H    basis set group =>   5
Atom  92H    basis set group =>   5
Atom  93H    basis set group =>   5
Atom  94H    basis set group =>   5
Atom  95H    basis set group =>   5
Atom  96H    basis set group =>   5
Atom  97H    basis set group =>   5
Atom  98H    basis set group =>   5
Atom  99H    basis set group =>   5
Atom 100H    basis set group =>   5

Checking for AutoStart:
The File: 15.gbw exists
Trying to determine its content:
     ... Fine, the file contains calculation information
     ... Fine, the calculation information was read
     ... Fine, the file contains a basis set
     ... Fine, the basis set was read
     ... Fine, the file contains a geometry
     ... Fine, the geometry was read
     ... The file does not contain orbitals - skipping AutoStart
------------------------------------------------------------------------------
                           ORCA GTO INTEGRAL CALCULATION
                           -- RI-GTO INTEGRALS CHOSEN --
------------------------------------------------------------------------------
------------------------------------------------------------------------------
                   ___                                                        
                  /   \      - P O W E R E D   B Y -                         
                 /     \                                                     
                 |  |  |   _    _      __       _____    __    __             
                 |  |  |  | |  | |    /  \     |  _  \  |  |  /  |          
                  \  \/   | |  | |   /    \    | | | |  |  | /  /          
                 / \  \   | |__| |  /  /\  \   | |_| |  |  |/  /          
                |  |  |   |  __  | /  /__\  \  |    /   |      \           
                |  |  |   | |  | | |   __   |  |    \   |  |\   \          
                \     /   | |  | | |  |  |  |  | |\  \  |  | \   \       
                 \___/    |_|  |_| |__|  |__|  |_| \__\ |__|  \__/        
                                                                              
                      - O R C A' S   B I G   F R I E N D -                    
                                      &                                       
                       - I N T E G R A L  F E E D E R -                       
                                                                              
 v1 FN, 2020, v2 2021                                                         
------------------------------------------------------------------------------


Reading SHARK input file 15.SHARKINP.tmp ... ok
----------------------
SHARK INTEGRAL PACKAGE
----------------------

Number of atoms                             ...    101
Number of basis functions                   ...    963
Number of shells                            ...    457
Maximum angular momentum                    ...      2
Integral batch strategy                     ... SHARK/LIBINT Hybrid
RI-J (if used) integral strategy            ... SPLIT-RIJ (Revised 2003 algorithm where possible)
Printlevel                                  ...      1
Contraction scheme used                     ... SEGMENTED contraction
Coulomb Range Separation                    ... NOT USED
Exchange Range Separation                   ... NOT USED
Finite Nucleus Model                        ... NOT USED
Auxiliary Coulomb fitting basis             ... AVAILABLE
   # of basis functions in Aux-J            ...   3015
   # of shells in Aux-J                     ...   1009
   Maximum angular momentum in Aux-J        ...      4
Auxiliary J/K fitting basis                 ... NOT available
Auxiliary Correlation fitting basis         ... NOT available
Auxiliary 'external' fitting basis          ... NOT available
Integral threshold                          ...     2.500000e-11
Primitive cut-off                           ...     2.500000e-12
Primitive pair pre-selection threshold      ...     2.500000e-12

Calculating pre-screening integrals         ... done (  0.6 sec) Dimension = 457
Organizing shell pair data                  ... done (  1.0 sec)
Shell pair information
Total number of shell pairs                 ...    104653
Shell pairs after pre-screening             ...     46908
Total number of primitive shell pairs       ...    377101
Primitive shell pairs kept                  ...    102407
          la=0 lb=0:  15547 shell pairs
          la=1 lb=0:  17865 shell pairs
          la=1 lb=1:   5220 shell pairs
          la=2 lb=0:   5042 shell pairs
          la=2 lb=1:   2832 shell pairs
          la=2 lb=2:    402 shell pairs

Calculating one electron integrals          ... done (  1.5 sec)
Calculating RI/J V-Matrix + Cholesky decomp.... done (  2.0 sec)
Calculating Nuclear repulsion               ... Error (ORCA_GTOINT/SHARK): Zero distance encountered between atoms 49 and 48
[file orca_gtoint/orca_gtoint.cpp, line 645]: 

ORCA finished by error termination in GTOInt
Calling Command: orca_gtoint 15.int.tmp 
[file orca_tools/qcmsg.cpp, line 465]: 
  .... aborting the run

