
                                 *****************
                                 * O   R   C   A *
                                 *****************

                                            #,                                       
                                            ###                                      
                                            ####                                     
                                            #####                                    
                                            ######                                   
                                           ########,                                 
                                     ,,################,,,,,                         
                               ,,#################################,,                 
                          ,,##########################################,,             
                       ,#########################################, ''#####,          
                    ,#############################################,,   '####,        
                  ,##################################################,,,,####,       
                ,###########''''           ''''###############################       
              ,#####''   ,,,,##########,,,,          '''####'''          '####       
            ,##' ,,,,###########################,,,                        '##       
           ' ,,###''''                  '''############,,,                           
         ,,##''                                '''############,,,,        ,,,,,,###''
      ,#''                                            '''#######################'''  
     '                                                          ''''####''''         
             ,#######,   #######,   ,#######,      ##                                
            ,#'     '#,  ##    ##  ,#'     '#,    #''#        ######   ,####,        
            ##       ##  ##   ,#'  ##            #'  '#       #        #'  '#        
            ##       ##  #######   ##           ,######,      #####,   #    #        
            '#,     ,#'  ##    ##  '#,     ,#' ,#      #,         ##   #,  ,#        
             '#######'   ##     ##  '#######'  #'      '#     #####' # '####'        



                  #######################################################
                  #                        -***-                        #
                  #          Department of theory and spectroscopy      #
                  #    Directorship and core code : Frank Neese         #
                  #        Max Planck Institute fuer Kohlenforschung    #
                  #                Kaiser Wilhelm Platz 1               #
                  #                 D-45470 Muelheim/Ruhr               #
                  #                      Germany                        #
                  #                                                     #
                  #                  All rights reserved                #
                  #                        -***-                        #
                  #######################################################


                         Program Version 5.0.3 -  RELEASE  -


 With contributions from (in alphabetic order):
   Daniel Aravena         : Magnetic Suceptibility
   Michael Atanasov       : Ab Initio Ligand Field Theory (pilot matlab implementation)
   Alexander A. Auer      : GIAO ZORA, VPT2 properties, NMR spectrum
   Ute Becker             : Parallelization
   Giovanni Bistoni       : ED, misc. LED, open-shell LED, HFLD
   Martin Brehm           : Molecular dynamics
   Dmytro Bykov           : SCF Hessian
   Vijay G. Chilkuri      : MRCI spin determinant printing, contributions to CSF-ICE
   Dipayan Datta          : RHF DLPNO-CCSD density
   Achintya Kumar Dutta   : EOM-CC, STEOM-CC
   Dmitry Ganyushin       : Spin-Orbit,Spin-Spin,Magnetic field MRCI
   Miquel Garcia          : C-PCM and meta-GGA Hessian, CC/C-PCM, Gaussian charge scheme
   Yang Guo               : DLPNO-NEVPT2, F12-NEVPT2, CIM, IAO-localization
   Andreas Hansen         : Spin unrestricted coupled pair/coupled cluster methods
   Benjamin Helmich-Paris : MC-RPA, TRAH-SCF, COSX integrals
   Lee Huntington         : MR-EOM, pCC
   Robert Izsak           : Overlap fitted RIJCOSX, COSX-SCS-MP3, EOM
   Marcus Kettner         : VPT2
   Christian Kollmar      : KDIIS, OOCD, Brueckner-CCSD(T), CCSD density, CASPT2, CASPT2-K
   Simone Kossmann        : Meta GGA functionals, TD-DFT gradient, OOMP2, MP2 Hessian
   Martin Krupicka        : Initial AUTO-CI
   Lucas Lang             : DCDCAS
   Marvin Lechner         : AUTO-CI (C++ implementation), FIC-MRCC
   Dagmar Lenk            : GEPOL surface, SMD
   Dimitrios Liakos       : Extrapolation schemes; Compound Job, initial MDCI parallelization
   Dimitrios Manganas     : Further ROCIS development; embedding schemes
   Dimitrios Pantazis     : SARC Basis sets
   Anastasios Papadopoulos: AUTO-CI, single reference methods and gradients
   Taras Petrenko         : DFT Hessian,TD-DFT gradient, ASA, ECA, R-Raman, ABS, FL, XAS/XES, NRVS
   Peter Pinski           : DLPNO-MP2, DLPNO-MP2 Gradient
   Christoph Reimann      : Effective Core Potentials
   Marius Retegan         : Local ZFS, SOC
   Christoph Riplinger    : Optimizer, TS searches, QM/MM, DLPNO-CCSD(T), (RO)-DLPNO pert. Triples
   Tobias Risthaus        : Range-separated hybrids, TD-DFT gradient, RPA, STAB
   Michael Roemelt        : Original ROCIS implementation
   Masaaki Saitow         : Open-shell DLPNO-CCSD energy and density
   Barbara Sandhoefer     : DKH picture change effects
   Avijit Sen             : IP-ROCIS
   Kantharuban Sivalingam : CASSCF convergence, NEVPT2, FIC-MRCI
   Bernardo de Souza      : ESD, SOC TD-DFT
   Georgi Stoychev        : AutoAux, RI-MP2 NMR, DLPNO-MP2 response
   Willem Van den Heuvel  : Paramagnetic NMR
   Boris Wezisla          : Elementary symmetry handling
   Frank Wennmohs         : Technical directorship


 We gratefully acknowledge several colleagues who have allowed us to
 interface, adapt or use parts of their codes:
   Stefan Grimme, W. Hujo, H. Kruse, P. Pracht,  : VdW corrections, initial TS optimization,
                  C. Bannwarth, S. Ehlert          DFT functionals, gCP, sTDA/sTD-DF
   Ed Valeev, F. Pavosevic, A. Kumar             : LibInt (2-el integral package), F12 methods
   Garnet Chan, S. Sharma, J. Yang, R. Olivares  : DMRG
   Ulf Ekstrom                                   : XCFun DFT Library
   Mihaly Kallay                                 : mrcc  (arbitrary order and MRCC methods)
   Jiri Pittner, Ondrej Demel                    : Mk-CCSD
   Frank Weinhold                                : gennbo (NPA and NBO analysis)
   Christopher J. Cramer and Donald G. Truhlar   : smd solvation model
   Lars Goerigk                                  : TD-DFT with DH, B97 family of functionals
   V. Asgeirsson, H. Jonsson                     : NEB implementation
   FAccTs GmbH                                   : IRC, NEB, NEB-TS, DLPNO-Multilevel, CI-OPT
                                                   MM, QMMM, 2- and 3-layer-ONIOM, Crystal-QMMM,
                                                   LR-CPCM, SF, NACMEs, symmetry and pop. for TD-DFT,
                                                   nearIR, NL-DFT gradient (VV10), updates on ESD,
                                                   ML-optimized integration grids
   S Lehtola, MJT Oliveira, MAL Marques          : LibXC Library
   Liviu Ungur et al                             : ANISO software


 Your calculation uses the libint2 library for the computation of 2-el integrals
 For citations please refer to: http://libint.valeyev.net

 Your ORCA version has been built with support for libXC version: 5.1.0
 For citations please refer to: https://tddft.org/programs/libxc/

 This ORCA versions uses:
   CBLAS   interface :  Fast vector & matrix operations
   LAPACKE interface :  Fast linear algebra routines
   SCALAPACK package :  Parallel linear algebra routines
   Shared memory     :  Shared parallel matrices
   BLAS/LAPACK       :  OpenBLAS 0.3.15  USE64BITINT DYNAMIC_ARCH NO_AFFINITY Zen SINGLE_THREADED
        Core in use  :  Zen
   Copyright (c) 2011-2014, The OpenBLAS Project




***************************************
The coordinates will be read from file: _23.xyz
***************************************


================================================================================

----- Orbital basis set information -----
Your calculation utilizes the basis: def2-SVP
   F. Weigend and R. Ahlrichs, Phys. Chem. Chem. Phys. 7, 3297 (2005).

----- AuxJ basis set information -----
Your calculation utilizes the auxiliary basis: def2/J
   F. Weigend, Phys. Chem. Chem. Phys. 8, 1057 (2006).

================================================================================
                                        WARNINGS
                       Please study these warnings very carefully!
================================================================================


INFO   : the flag for use of the SHARK integral package has been found!

================================================================================
                                       INPUT FILE
================================================================================
NAME = 23.inp
|  1> ! B3LYP DEF2-SVP TightSCF
|  2> %elprop
|  3> Polar 1
|  4> end
|  5> * xyzfile 0 1 _23.xyz
|  6> 
|  7>                          ****END OF INPUT****
================================================================================

                       ****************************
                       * Single Point Calculation *
                       ****************************

---------------------------------
CARTESIAN COORDINATES (ANGSTROEM)
---------------------------------
  C      4.982653    3.455255   -1.625533
  C      5.713449    3.070362   -0.337196
  C      7.147843    3.556532   -0.517657
  C      5.110508    3.771396    0.831801
  C      5.664293    1.604183   -0.183260
  C      4.442966    0.965667   -0.358272
  C      4.323936   -0.400515   -0.250746
  C      5.514812   -1.082920    0.044519
  C      6.716732   -0.496138    0.222622
  C      6.818001    0.866614    0.112541
  C      7.911082   -1.342391    0.529846
  C      7.683105   -2.128384    1.813371
  C      9.174345   -0.557367    0.631397
  C      8.034244   -2.339821   -0.594267
  O      5.431161   -2.469914    0.157410
  C      3.080299   -1.142867   -0.357268
  N      1.967958   -0.582820   -0.542143
  C      0.714141   -1.371877   -0.643695
  C      0.702046   -2.457226    0.365033
  C     -0.465440   -2.408469    1.299720
  C     -0.937463   -1.077553    1.755817
  C     -0.366490    0.053235    0.970123
  C     -0.481609   -0.403372   -0.509908
  N     -1.698785   -0.962592   -0.686094
  C     -2.744513   -1.478206   -0.848028
  C     -4.100350   -0.923859   -0.692450
  C     -4.335996    0.406901   -0.361954
  C     -5.575483    0.945572   -0.156821
  C     -6.653171    0.091858   -0.289446
  C     -6.501618   -1.238038   -0.612446
  C     -5.237512   -1.724522   -0.809365
  C     -7.679786   -2.128103   -0.735540
  C     -7.354706   -3.583844   -0.621305
  C     -8.277039   -1.831085   -2.114409
  C     -8.731726   -1.746543    0.303229
  C     -5.831613    2.359665    0.144807
  C     -7.335697    2.609071    0.330052
  C     -5.101697    2.943652    1.292577
  C     -5.426627    3.131665   -1.122365
  O     -3.222228    1.203156   -0.245147
  Co     0.000000    0.000000    0.000000
  H      3.897954    3.657874   -1.437880
  H      5.426193    4.419663   -1.961198
  H      5.161044    2.656076   -2.356509
  H      7.722256    3.493864    0.412941
  H      7.600340    3.077738   -1.384070
  H      7.062430    4.640947   -0.756811
  H      5.306470    3.193002    1.773812
  H      5.664376    4.756311    0.964584
  H      4.033255    3.953813    0.656150
  H      3.548947    1.523392   -0.584171
  H      7.751433    1.398245    0.240034
  H      7.156148   -1.550671    2.577283
  H      8.690063   -2.370047    2.220856
  H      7.210265   -3.130110    1.594798
  H      9.500492   -0.271500   -0.383199
  H      9.117348    0.320771    1.303233
  H      9.964627   -1.274608    0.989832
  H      7.501214   -1.941362   -1.493349
  H      7.549430   -3.314250   -0.383238
  H      9.099798   -2.440340   -0.929667
  H      3.098853   -2.247957   -0.295507
  H      0.685762   -1.772828   -1.656487
  H      1.661395   -2.460318    0.957811
  H      0.622314   -3.442587   -0.194446
  H     -0.094984   -2.994853    2.231032
  H     -1.279168   -3.090229    0.943411
  H     -0.713089   -0.957099    2.858825
  H     -2.059535   -1.072185    1.644176
  H      0.711026    0.201547    1.184167
  H     -0.913183    0.969014    1.157487
  H     -0.240176    0.514401   -1.135967
  H     -2.795214   -2.567495   -1.169762
  H     -7.650966    0.462058   -0.132678
  H     -5.102115   -2.760458   -1.057078
  H     -6.557037   -3.782643    0.108781
  H     -8.271485   -4.076640   -0.192842
  H     -7.207220   -4.018497   -1.617117
  H     -9.156290   -2.461446   -2.306412
  H     -8.538490   -0.753085   -2.083210
  H     -7.458668   -1.959391   -2.833360
  H     -9.188084   -2.682980    0.660979
  H     -8.241239   -1.273428    1.192830
  H     -9.512253   -1.107179   -0.131855
  H     -7.424315    3.685816    0.591066
  H     -7.896064    2.475112   -0.610650
  H     -7.702120    2.032807    1.183118
  H     -5.824810    3.389220    2.007273
  H     -4.461193    3.835120    0.980678
  H     -4.497087    2.232840    1.899855
  H     -6.075631    2.695648   -1.921085
  H     -4.402988    2.823061   -1.381362
  H     -5.554053    4.209490   -1.001419

----------------------------
CARTESIAN COORDINATES (A.U.)
----------------------------
  NO LB      ZA    FRAG     MASS         X           Y           Z
   0 C     6.0000    0    12.011    9.415850    6.529486   -3.071812
   1 C     6.0000    0    12.011   10.796854    5.802143   -0.637208
   2 C     6.0000    0    12.011   13.507466    6.720871   -0.978230
   3 C     6.0000    0    12.011    9.657461    7.126906    1.571876
   4 C     6.0000    0    12.011   10.703963    3.031467   -0.346311
   5 C     6.0000    0    12.011    8.395989    1.824846   -0.677036
   6 C     6.0000    0    12.011    8.171055   -0.756864   -0.473841
   7 C     6.0000    0    12.011   10.421484   -2.046422    0.084129
   8 C     6.0000    0    12.011   12.692784   -0.937565    0.420695
   9 C     6.0000    0    12.011   12.884155    1.637663    0.212672
  10 C     6.0000    0    12.011   14.949778   -2.536751    1.001264
  11 C     6.0000    0    12.011   14.518964   -4.022063    3.426775
  12 C     6.0000    0    12.011   17.337000   -1.053271    1.193167
  13 C     6.0000    0    12.011   15.182521   -4.421621   -1.123002
  14 O     8.0000    0    15.999   10.263407   -4.667461    0.297462
  15 C     6.0000    0    12.011    5.820922   -2.159706   -0.675139
  16 N     7.0000    0    14.007    3.718902   -1.101370   -1.024502
  17 C     6.0000    0    12.011    1.349531   -2.592472   -1.216407
  18 C     6.0000    0    12.011    1.326675   -4.643484    0.689812
  19 C     6.0000    0    12.011   -0.879554   -4.551347    2.456115
  20 C     6.0000    0    12.011   -1.771548   -2.036280    3.318013
  21 C     6.0000    0    12.011   -0.692566    0.100600    1.833267
  22 C     6.0000    0    12.011   -0.910109   -0.762263   -0.963586
  23 N     7.0000    0    14.007   -3.210238   -1.819035   -1.296530
  24 C     6.0000    0    12.011   -5.186378   -2.793405   -1.602541
  25 C     6.0000    0    12.011   -7.748539   -1.745840   -1.308541
  26 C     6.0000    0    12.011   -8.193845    0.768931   -0.683994
  27 C     6.0000    0    12.011  -10.536136    1.786872   -0.296349
  28 C     6.0000    0    12.011  -12.572671    0.173586   -0.546974
  29 C     6.0000    0    12.011  -12.286277   -2.339553   -1.157355
  30 C     6.0000    0    12.011   -9.897463   -3.258874   -1.529478
  31 C     6.0000    0    12.011  -14.512692   -4.021532   -1.389969
  32 C     6.0000    0    12.011  -13.898380   -6.772484   -1.174096
  33 C     6.0000    0    12.011  -15.641337   -3.460249   -3.995654
  34 C     6.0000    0    12.011  -16.500571   -3.300488    0.573020
  35 C     6.0000    0    12.011  -11.020151    4.459121    0.273646
  36 C     6.0000    0    12.011  -13.862458    4.930430    0.623708
  37 C     6.0000    0    12.011   -9.640810    5.562696    2.442617
  38 C     6.0000    0    12.011  -10.254839    5.917989   -2.120962
  39 O     8.0000    0    15.999   -6.089128    2.273635   -0.463261
  40 Co   27.0000    0    58.930    0.000000    0.000000    0.000000
  41 H     1.0000    0     1.008    7.366066    6.912380   -2.717199
  42 H     1.0000    0     1.008   10.254019    8.351953   -3.706127
  43 H     1.0000    0     1.008    9.752960    5.019256   -4.453157
  44 H     1.0000    0     1.008   14.592949    6.602446    0.780345
  45 H     1.0000    0     1.008   14.362561    5.816082   -2.615513
  46 H     1.0000    0     1.008   13.346059    8.770119   -1.430166
  47 H     1.0000    0     1.008   10.027775    6.033899    3.352019
  48 H     1.0000    0     1.008   10.704119    8.988125    1.822800
  49 H     1.0000    0     1.008    7.621747    7.471624    1.239944
  50 H     1.0000    0     1.008    6.706538    2.878794   -1.103923
  51 H     1.0000    0     1.008   14.648086    2.642300    0.453599
  52 H     1.0000    0     1.008   13.523160   -2.930344    4.870359
  53 H     1.0000    0     1.008   16.421839   -4.478740    4.196810
  54 H     1.0000    0     1.008   13.625426   -5.915051    3.013731
  55 H     1.0000    0     1.008   17.953328   -0.513061   -0.724141
  56 H     1.0000    0     1.008   17.229291    0.606169    2.462753
  57 H     1.0000    0     1.008   18.830416   -2.408660    1.870511
  58 H     1.0000    0     1.008   14.175240   -3.668643   -2.822021
  59 H     1.0000    0     1.008   14.266355   -6.263025   -0.724215
  60 H     1.0000    0     1.008   17.196126   -4.611574   -1.756816
  61 H     1.0000    0     1.008    5.855983   -4.248023   -0.558427
  62 H     1.0000    0     1.008    1.295902   -3.350159   -3.130307
  63 H     1.0000    0     1.008    3.139582   -4.649327    1.810000
  64 H     1.0000    0     1.008    1.176003   -6.505547   -0.367450
  65 H     1.0000    0     1.008   -0.179494   -5.659452    4.216039
  66 H     1.0000    0     1.008   -2.417277   -5.839687    1.782788
  67 H     1.0000    0     1.008   -1.347543   -1.808655    5.402396
  68 H     1.0000    0     1.008   -3.891957   -2.026136    3.107042
  69 H     1.0000    0     1.008    1.343644    0.380869    2.237751
  70 H     1.0000    0     1.008   -1.725666    1.831171    2.187333
  71 H     1.0000    0     1.008   -0.453867    0.972077   -2.146667
  72 H     1.0000    0     1.008   -5.282189   -4.851862   -2.210530
  73 H     1.0000    0     1.008  -14.458230    0.873163   -0.250725
  74 H     1.0000    0     1.008   -9.641600   -5.216510   -1.997588
  75 H     1.0000    0     1.008  -12.391004   -7.148159    0.205566
  76 H     1.0000    0     1.008  -15.630841   -7.703733   -0.364419
  77 H     1.0000    0     1.008  -13.619672   -7.593859   -3.055908
  78 H     1.0000    0     1.008  -17.302881   -4.651459   -4.358487
  79 H     1.0000    0     1.008  -16.135408   -1.423124   -3.936696
  80 H     1.0000    0     1.008  -14.094840   -3.702712   -5.354274
  81 H     1.0000    0     1.008  -17.362962   -5.070097    1.249069
  82 H     1.0000    0     1.008  -15.573685   -2.406430    2.254122
  83 H     1.0000    0     1.008  -17.975553   -2.092265   -0.249170
  84 H     1.0000    0     1.008  -14.029922    6.965183    1.116953
  85 H     1.0000    0     1.008  -14.921398    4.677284   -1.153961
  86 H     1.0000    0     1.008  -14.554897    3.841449    2.235769
  87 H     1.0000    0     1.008  -11.007296    6.404698    3.793196
  88 H     1.0000    0     1.008   -8.430433    7.247326    1.853213
  89 H     1.0000    0     1.008   -8.498263    4.219456    3.590206
  90 H     1.0000    0     1.008  -11.481279    5.094036   -3.630325
  91 H     1.0000    0     1.008   -8.320441    5.334812   -2.610396
  92 H     1.0000    0     1.008  -10.495639    7.954783   -1.892408

--------------------------------
INTERNAL COORDINATES (ANGSTROEM)
--------------------------------
 C      0   0   0     0.000000000000     0.00000000     0.00000000
 C      1   0   0     1.530365198452     0.00000000     0.00000000
 C      2   1   0     1.525258531744   105.62339774     0.00000000
 C      2   1   3     1.490483312435   110.41406910   117.53445427
 C      2   1   3     1.475057105496   108.77977435   240.62760758
 C      5   2   1     1.389234149929   118.22927951   312.40679626
 C      6   5   2     1.375566515549   121.51402775   178.99350593
 C      7   6   5     1.403938621032   115.20060623     0.00000000
 C      8   7   6     1.349312966118   124.88732524     0.09916102
 C      9   8   7     1.370936267821   119.17503220   359.92354120
 C      9   8   7     1.495661274716   119.49664652   180.17713574
 C     11   9   8     1.522233534712   110.22783862   300.69430927
 C     11   9   8     1.490774528004   113.12393108   177.12513138
 C     11   9   8     1.507867872167   106.64031958    56.99084986
 O      8   7   6     1.394092616621   116.72589279   180.15556243
 C      7   6   5     1.452262516268   125.17314416   177.03187667
 N     16   7   6     1.259021011785   122.68133041   358.84481813
 C     17  16   7     1.484917784742   121.30983947   180.12811553
 C     18  17  16     1.481776271510   110.46002594    41.42392387
 C     19  18  17     1.496342405071   114.06260405   122.22885429
 C     20  19  18     1.483970210278   117.99430483   322.13108724
 C     21  20  19     1.490639704727   113.36054667    13.10567653
 C     18  17  16     1.544577275145   108.33410154   165.94071064
 N     23  18  17     1.351031431896   115.25326483   175.09969742
 C     24  23  18     1.177126784733   178.38964811   354.13025776
 C     25  24  23     1.473023788356   129.66702052   180.09080625
 C     26  25  24     1.391286750074   122.74820588     3.07558356
 C     27  26  25     1.366957942696   124.48205182   182.71979808
 C     28  27  26     1.381241618894   116.71170876     0.12431773
 C     29  28  27     1.376924356174   122.24996320   359.97183754
 C     30  29  28     1.368724864263   118.59998943   359.91202521
 C     30  29  28     1.481704313716   120.80755872   179.48797929
 C     32  30  29     1.495964070660   113.91742672   199.90322278
 C     32  30  29     1.531734493146   105.56580172    79.09911961
 C     32  30  29     1.526829012221   109.94953630   323.80457218
 C     28  27  26     1.468414464629   124.64384571   182.30005070
 C     36  28  27     1.535834542494   110.60845331   180.65336991
 C     36  28  27     1.480268271674   116.94802959   306.17888829
 C     36  28  27     1.538090549279   105.55697065    66.41929758
 O     27  26  25     1.374097907028   115.92370871     2.84086928
 Co    23  18  17     0.809112086011    84.62824955   325.74715046
 H      1   2   3     1.119303367354   111.54042594   210.14942793
 H      1   2   3     1.113320041268   106.34591029   325.57035057
 H      1   2   3     1.097650370336   107.45173277    84.98416905
 H      3   2   1     1.095395001996   111.98715471   169.89926922
 H      3   2   1     1.088424878443   110.17785548   300.13864844
 H      3   2   1     1.113753073401   105.28583068    54.96784666
 H      4   2   1     1.122642173090   110.19271315   155.27073625
 H      4   2   1     1.137742784525   107.56375213   269.50363407
 H      4   2   1     1.106617938450   110.29373706    30.04387790
 H      6   5   2     1.077662983584   121.18910265   358.98418401
 H     10   9   8     1.081749177875   122.87431286   180.22146860
 H     12  11   9     1.093159427514   112.86399154   321.29910764
 H     12  11   9     1.112838462922   106.58035104   203.93327217
 H     12  11   9     1.129073425870   110.95253534    90.27236738
 H     13  11   9     1.103402397366   108.92095226   285.10987992
 H     13  11   9     1.107130803451   114.54345685    50.83210055
 H     13  11   9     1.125813457385   106.32239344   173.01666883
 H     14  11   9     1.118587948400   108.94452191    22.01595022
 H     14  11   9     1.108643193042   113.81468526   265.31630526
 H     14  11   9     1.121607130985   111.08854732   136.16882909
 H     16   7   6     1.106969999655   119.46261522   177.57862298
 H     18  17  16     1.089639714450   106.32510632   280.55966927
 H     19  18  17     1.127717084002   110.66478852   358.09712831
 H     19  18  17     1.135918238073   107.49720921   239.85017453
 H     20  19  18     1.161217414930   103.62764214   202.94555332
 H     20  19  18     1.119779468942   110.38832588    96.25280742
 H     21  20  19     1.132024516544   109.38151335   248.76509311
 H     21  20  19     1.127624982647   106.87921177   133.19973306
 H     22  21  20     1.108535977556   111.84147214   288.99551630
 H     22  21  20     1.082880271122   110.91342440   165.62176502
 H     23  18  17     1.136902390049   107.10242322    43.03828573
 H     25  24  23     1.136940580540   119.88193048     0.32746093
 H     29  28  27     1.075741189994   119.80188563   179.60904826
 H     31  30  29     1.073712007046   119.51022007   179.70090205
 H     33  32  30     1.099464616692   112.60128521    36.40347013
 H     33  32  30     1.125571932320   106.14801898   150.77094895
 H     33  32  30     1.096502115798   110.21965768   265.55419167
 H     34  32  30     1.098773162819   110.98213875   179.08742819
 H     34  32  30     1.109690949320   104.76946216   300.08560997
 H     34  32  30     1.096851887758   106.04829364    54.10972057
 H     35  32  30     1.101436308478   107.09589662   217.49078275
 H     35  32  30     1.120627163509   110.12300079   332.79397388
 H     35  32  30     1.098775140455   111.43444793    98.11473905
 H     37  36  28     1.111468062134   105.29121824   177.85946670
 H     37  36  28     1.103121226871   112.01844455   292.74286421
 H     37  36  28     1.092734008339   109.68913814    62.45164754
 H     38  36  28     1.110051181617   109.65536915   235.12617196
 H     38  36  28     1.141157988729   111.90267292   121.26120522
 H     38  36  28     1.113370343025   116.02906429   353.83161732
 H     39  36  28     1.117707768026   103.88929998    58.72142121
 H     39  36  28     1.100069396514   107.34791346   307.57931221
 H     39  36  28     1.092049472788   111.92643667   181.38639540

---------------------------
INTERNAL COORDINATES (A.U.)
---------------------------
 C      0   0   0     0.000000000000     0.00000000     0.00000000
 C      1   0   0     2.891971109959     0.00000000     0.00000000
 C      2   1   0     2.882320908422   105.62339774     0.00000000
 C      2   1   3     2.816605267681   110.41406910   117.53445427
 C      2   1   3     2.787453961281   108.77977435   240.62760758
 C      5   2   1     2.625272079257   118.22927951   312.40679626
 C      6   5   2     2.599443993380   121.51402775   178.99350593
 C      7   6   5     2.653059502586   115.20060623     0.00000000
 C      8   7   6     2.549831974911   124.88732524     0.09916102
 C      9   8   7     2.590694093241   119.17503220   359.92354120
 C      9   8   7     2.826390198325   119.49664652   180.17713574
 C     11   9   8     2.876604492477   110.22783862   300.69430927
 C     11   9   8     2.817155585354   113.12393108   177.12513138
 C     11   9   8     2.849457324534   106.64031958    56.99084986
 O      8   7   6     2.634453250736   116.72589279   180.15556243
 C      7   6   5     2.744378430306   125.17314416   177.03187667
 N     16   7   6     2.379204909125   122.68133041   358.84481813
 C     17  16   7     2.806087944551   121.30983947   180.12811553
 C     18  17  16     2.800151344897   110.46002594    41.42392387
 C     19  18  17     2.827677348157   114.06260405   122.22885429
 C     20  19  18     2.804297288324   117.99430483   322.13108724
 C     21  20  19     2.816900806284   113.36054667    13.10567653
 C     18  17  16     2.918828042702   108.33410154   165.94071064
 N     23  18  17     2.553079404604   115.25326483   175.09969742
 C     24  23  18     2.224447248049   178.38964811   354.13025776
 C     25  24  23     2.783611548744   129.66702052   180.09080625
 C     26  25  24     2.629150931394   122.74820588     3.07558356
 C     27  26  25     2.583176148283   124.48205182   182.71979808
 C     28  27  26     2.610168384484   116.71170876     0.12431773
 C     29  28  27     2.602009940295   122.24996320   359.97183754
 C     30  29  28     2.586515146146   118.59998943   359.91202521
 C     30  29  28     2.800015364373   120.80755872   179.48797929
 C     32  30  29     2.826962399734   113.91742672   199.90322278
 C     32  30  29     2.894558701927   105.56580172    79.09911961
 C     32  30  29     2.885288686424   109.94953630   323.80457218
 C     28  27  26     2.774901189238   124.64384571   182.30005070
 C     36  28  27     2.902306672329   110.60845331   180.65336991
 C     36  28  27     2.797301638197   116.94802959   306.17888829
 C     36  28  27     2.906569907309   105.55697065    66.41929758
 O     27  26  25     2.596668725477   115.92370871     2.84086928
 Co    23  18  17     1.529000254206    84.62824955   325.74715046
 H      1   2   3     2.115176825076   111.54042594   210.14942793
 H      1   2   3     2.103869977402   106.34591029   325.57035057
 H      1   2   3     2.074258590732   107.45173277    84.98416905
 H      3   2   1     2.069996562238   111.98715471   169.89926922
 H      3   2   1     2.056824937604   110.17785548   300.13864844
 H      3   2   1     2.104688289541   105.28583068    54.96784666
 H      4   2   1     2.121486253531   110.19271315   155.27073625
 H      4   2   1     2.150022273597   107.56375213   269.50363407
 H      4   2   1     2.091204838555   110.29373706    30.04387790
 H      6   5   2     2.036487903638   121.18910265   358.98418401
 H     10   9   8     2.044209691779   122.87431286   180.22146860
 H     12  11   9     2.065771938715   112.86399154   321.29910764
 H     12  11   9     2.102959926216   106.58035104   203.93327217
 H     12  11   9     2.133639559982   110.95253534    90.27236738
 H     13  11   9     2.085128346535   108.92095226   285.10987992
 H     13  11   9     2.092174012950   114.54345685    50.83210055
 H     13  11   9     2.127479112341   106.32239344   173.01666883
 H     14  11   9     2.113824879180   108.94452191    22.01595022
 H     14  11   9     2.095032015085   113.81468526   265.31630526
 H     14  11   9     2.119530307415   111.08854732   136.16882909
 H     16   7   6     2.091870137816   119.46261522   177.57862298
 H     18  17  16     2.059120644954   106.32510632   280.55966927
 H     19  18  17     2.131076445307   110.66478852   358.09712831
 H     19  18  17     2.146574380484   107.49720921   239.85017453
 H     20  19  18     2.194382896157   103.62764214   202.94555332
 H     20  19  18     2.116076526689   110.38832588    96.25280742
 H     21  20  19     2.139216313152   109.38151335   248.76509311
 H     21  20  19     2.130902398970   106.87921177   133.19973306
 H     22  21  20     2.094829407179   111.84147214   288.99551630
 H     22  21  20     2.046347148248   110.91342440   165.62176502
 H     23  18  17     2.148434158193   107.10242322    43.03828573
 H     25  24  23     2.148506327762   119.88193048     0.32746093
 H     29  28  27     2.032856240067   119.80188563   179.60904826
 H     31  30  29     2.029021640019   119.51022007   179.70090205
 H     33  32  30     2.077687019485   112.60128521    36.40347013
 H     33  32  30     2.127022696113   106.14801898   150.77094895
 H     33  32  30     2.072088704123   110.21965768   265.55419167
 H     34  32  30     2.076380361030   110.98213875   179.08742819
 H     34  32  30     2.097011987505   104.76946216   300.08560997
 H     34  32  30     2.072749677337   106.04829364    54.10972057
 H     35  32  30     2.081412976980   107.09589662   217.49078275
 H     35  32  30     2.117678437266   110.12300079   332.79397388
 H     35  32  30     2.076384098220   111.43444793    98.11473905
 H     37  36  28     2.100370244034   105.29121824   177.85946670
 H     37  36  28     2.084597011302   112.01844455   292.74286421
 H     37  36  28     2.064968012983   109.68913814    62.45164754
 H     38  36  28     2.097692727892   109.65536915   235.12617196
 H     38  36  28     2.156476074235   111.90267292   121.26120522
 H     38  36  28     2.103965033948   116.02906429   353.83161732
 H     39  36  28     2.112161579325   103.88929998    58.72142121
 H     39  36  28     2.078829887719   107.34791346   307.57931221
 H     39  36  28     2.063674428263   111.92643667   181.38639540

---------------------
BASIS SET INFORMATION
---------------------
There are 5 groups of distinct atoms

 Group   1 Type C   : 7s4p1d contracted to 3s2p1d pattern {511/31/1}
 Group   2 Type O   : 7s4p1d contracted to 3s2p1d pattern {511/31/1}
 Group   3 Type N   : 7s4p1d contracted to 3s2p1d pattern {511/31/1}
 Group   4 Type Co  : 14s9p5d1f contracted to 5s3p2d1f pattern {63311/531/41/1}
 Group   5 Type H   : 4s1p contracted to 2s1p pattern {31/1}

Atom   0C    basis set group =>   1
Atom   1C    basis set group =>   1
Atom   2C    basis set group =>   1
Atom   3C    basis set group =>   1
Atom   4C    basis set group =>   1
Atom   5C    basis set group =>   1
Atom   6C    basis set group =>   1
Atom   7C    basis set group =>   1
Atom   8C    basis set group =>   1
Atom   9C    basis set group =>   1
Atom  10C    basis set group =>   1
Atom  11C    basis set group =>   1
Atom  12C    basis set group =>   1
Atom  13C    basis set group =>   1
Atom  14O    basis set group =>   2
Atom  15C    basis set group =>   1
Atom  16N    basis set group =>   3
Atom  17C    basis set group =>   1
Atom  18C    basis set group =>   1
Atom  19C    basis set group =>   1
Atom  20C    basis set group =>   1
Atom  21C    basis set group =>   1
Atom  22C    basis set group =>   1
Atom  23N    basis set group =>   3
Atom  24C    basis set group =>   1
Atom  25C    basis set group =>   1
Atom  26C    basis set group =>   1
Atom  27C    basis set group =>   1
Atom  28C    basis set group =>   1
Atom  29C    basis set group =>   1
Atom  30C    basis set group =>   1
Atom  31C    basis set group =>   1
Atom  32C    basis set group =>   1
Atom  33C    basis set group =>   1
Atom  34C    basis set group =>   1
Atom  35C    basis set group =>   1
Atom  36C    basis set group =>   1
Atom  37C    basis set group =>   1
Atom  38C    basis set group =>   1
Atom  39O    basis set group =>   2
Atom  40Co   basis set group =>   4
Atom  41H    basis set group =>   5
Atom  42H    basis set group =>   5
Atom  43H    basis set group =>   5
Atom  44H    basis set group =>   5
Atom  45H    basis set group =>   5
Atom  46H    basis set group =>   5
Atom  47H    basis set group =>   5
Atom  48H    basis set group =>   5
Atom  49H    basis set group =>   5
Atom  50H    basis set group =>   5
Atom  51H    basis set group =>   5
Atom  52H    basis set group =>   5
Atom  53H    basis set group =>   5
Atom  54H    basis set group =>   5
Atom  55H    basis set group =>   5
Atom  56H    basis set group =>   5
Atom  57H    basis set group =>   5
Atom  58H    basis set group =>   5
Atom  59H    basis set group =>   5
Atom  60H    basis set group =>   5
Atom  61H    basis set group =>   5
Atom  62H    basis set group =>   5
Atom  63H    basis set group =>   5
Atom  64H    basis set group =>   5
Atom  65H    basis set group =>   5
Atom  66H    basis set group =>   5
Atom  67H    basis set group =>   5
Atom  68H    basis set group =>   5
Atom  69H    basis set group =>   5
Atom  70H    basis set group =>   5
Atom  71H    basis set group =>   5
Atom  72H    basis set group =>   5
Atom  73H    basis set group =>   5
Atom  74H    basis set group =>   5
Atom  75H    basis set group =>   5
Atom  76H    basis set group =>   5
Atom  77H    basis set group =>   5
Atom  78H    basis set group =>   5
Atom  79H    basis set group =>   5
Atom  80H    basis set group =>   5
Atom  81H    basis set group =>   5
Atom  82H    basis set group =>   5
Atom  83H    basis set group =>   5
Atom  84H    basis set group =>   5
Atom  85H    basis set group =>   5
Atom  86H    basis set group =>   5
Atom  87H    basis set group =>   5
Atom  88H    basis set group =>   5
Atom  89H    basis set group =>   5
Atom  90H    basis set group =>   5
Atom  91H    basis set group =>   5
Atom  92H    basis set group =>   5
---------------------------------
AUXILIARY/J BASIS SET INFORMATION
---------------------------------
There are 5 groups of distinct atoms

 Group   1 Type C   : 12s5p4d2f1g contracted to 6s4p3d1f1g pattern {711111/2111/211/2/1}
 Group   2 Type O   : 12s5p4d2f1g contracted to 6s4p3d1f1g pattern {711111/2111/211/2/1}
 Group   3 Type N   : 12s5p4d2f1g contracted to 6s4p3d1f1g pattern {711111/2111/211/2/1}
 Group   4 Type Co  : 19s5p5d3f3g contracted to 8s5p5d2f3g pattern {121111111/11111/11111/21/111}
 Group   5 Type H   : 5s2p1d contracted to 3s1p1d pattern {311/2/1}

Atom   0C    basis set group =>   1
Atom   1C    basis set group =>   1
Atom   2C    basis set group =>   1
Atom   3C    basis set group =>   1
Atom   4C    basis set group =>   1
Atom   5C    basis set group =>   1
Atom   6C    basis set group =>   1
Atom   7C    basis set group =>   1
Atom   8C    basis set group =>   1
Atom   9C    basis set group =>   1
Atom  10C    basis set group =>   1
Atom  11C    basis set group =>   1
Atom  12C    basis set group =>   1
Atom  13C    basis set group =>   1
Atom  14O    basis set group =>   2
Atom  15C    basis set group =>   1
Atom  16N    basis set group =>   3
Atom  17C    basis set group =>   1
Atom  18C    basis set group =>   1
Atom  19C    basis set group =>   1
Atom  20C    basis set group =>   1
Atom  21C    basis set group =>   1
Atom  22C    basis set group =>   1
Atom  23N    basis set group =>   3
Atom  24C    basis set group =>   1
Atom  25C    basis set group =>   1
Atom  26C    basis set group =>   1
Atom  27C    basis set group =>   1
Atom  28C    basis set group =>   1
Atom  29C    basis set group =>   1
Atom  30C    basis set group =>   1
Atom  31C    basis set group =>   1
Atom  32C    basis set group =>   1
Atom  33C    basis set group =>   1
Atom  34C    basis set group =>   1
Atom  35C    basis set group =>   1
Atom  36C    basis set group =>   1
Atom  37C    basis set group =>   1
Atom  38C    basis set group =>   1
Atom  39O    basis set group =>   2
Atom  40Co   basis set group =>   4
Atom  41H    basis set group =>   5
Atom  42H    basis set group =>   5
Atom  43H    basis set group =>   5
Atom  44H    basis set group =>   5
Atom  45H    basis set group =>   5
Atom  46H    basis set group =>   5
Atom  47H    basis set group =>   5
Atom  48H    basis set group =>   5
Atom  49H    basis set group =>   5
Atom  50H    basis set group =>   5
Atom  51H    basis set group =>   5
Atom  52H    basis set group =>   5
Atom  53H    basis set group =>   5
Atom  54H    basis set group =>   5
Atom  55H    basis set group =>   5
Atom  56H    basis set group =>   5
Atom  57H    basis set group =>   5
Atom  58H    basis set group =>   5
Atom  59H    basis set group =>   5
Atom  60H    basis set group =>   5
Atom  61H    basis set group =>   5
Atom  62H    basis set group =>   5
Atom  63H    basis set group =>   5
Atom  64H    basis set group =>   5
Atom  65H    basis set group =>   5
Atom  66H    basis set group =>   5
Atom  67H    basis set group =>   5
Atom  68H    basis set group =>   5
Atom  69H    basis set group =>   5
Atom  70H    basis set group =>   5
Atom  71H    basis set group =>   5
Atom  72H    basis set group =>   5
Atom  73H    basis set group =>   5
Atom  74H    basis set group =>   5
Atom  75H    basis set group =>   5
Atom  76H    basis set group =>   5
Atom  77H    basis set group =>   5
Atom  78H    basis set group =>   5
Atom  79H    basis set group =>   5
Atom  80H    basis set group =>   5
Atom  81H    basis set group =>   5
Atom  82H    basis set group =>   5
Atom  83H    basis set group =>   5
Atom  84H    basis set group =>   5
Atom  85H    basis set group =>   5
Atom  86H    basis set group =>   5
Atom  87H    basis set group =>   5
Atom  88H    basis set group =>   5
Atom  89H    basis set group =>   5
Atom  90H    basis set group =>   5
Atom  91H    basis set group =>   5
Atom  92H    basis set group =>   5
[file orca_main/mainfcts.cpp, line 624]: Error : multiplicity (1) is odd and number of electrons (325) is odd -> impossible

