
                                 *****************
                                 * O   R   C   A *
                                 *****************

                                            #,                                       
                                            ###                                      
                                            ####                                     
                                            #####                                    
                                            ######                                   
                                           ########,                                 
                                     ,,################,,,,,                         
                               ,,#################################,,                 
                          ,,##########################################,,             
                       ,#########################################, ''#####,          
                    ,#############################################,,   '####,        
                  ,##################################################,,,,####,       
                ,###########''''           ''''###############################       
              ,#####''   ,,,,##########,,,,          '''####'''          '####       
            ,##' ,,,,###########################,,,                        '##       
           ' ,,###''''                  '''############,,,                           
         ,,##''                                '''############,,,,        ,,,,,,###''
      ,#''                                            '''#######################'''  
     '                                                          ''''####''''         
             ,#######,   #######,   ,#######,      ##                                
            ,#'     '#,  ##    ##  ,#'     '#,    #''#        ######   ,####,        
            ##       ##  ##   ,#'  ##            #'  '#       #        #'  '#        
            ##       ##  #######   ##           ,######,      #####,   #    #        
            '#,     ,#'  ##    ##  '#,     ,#' ,#      #,         ##   #,  ,#        
             '#######'   ##     ##  '#######'  #'      '#     #####' # '####'        



                  #######################################################
                  #                        -***-                        #
                  #          Department of theory and spectroscopy      #
                  #    Directorship and core code : Frank Neese         #
                  #        Max Planck Institute fuer Kohlenforschung    #
                  #                Kaiser Wilhelm Platz 1               #
                  #                 D-45470 Muelheim/Ruhr               #
                  #                      Germany                        #
                  #                                                     #
                  #                  All rights reserved                #
                  #                        -***-                        #
                  #######################################################


                         Program Version 5.0.3 -  RELEASE  -


 With contributions from (in alphabetic order):
   Daniel Aravena         : Magnetic Suceptibility
   Michael Atanasov       : Ab Initio Ligand Field Theory (pilot matlab implementation)
   Alexander A. Auer      : GIAO ZORA, VPT2 properties, NMR spectrum
   Ute Becker             : Parallelization
   Giovanni Bistoni       : ED, misc. LED, open-shell LED, HFLD
   Martin Brehm           : Molecular dynamics
   Dmytro Bykov           : SCF Hessian
   Vijay G. Chilkuri      : MRCI spin determinant printing, contributions to CSF-ICE
   Dipayan Datta          : RHF DLPNO-CCSD density
   Achintya Kumar Dutta   : EOM-CC, STEOM-CC
   Dmitry Ganyushin       : Spin-Orbit,Spin-Spin,Magnetic field MRCI
   Miquel Garcia          : C-PCM and meta-GGA Hessian, CC/C-PCM, Gaussian charge scheme
   Yang Guo               : DLPNO-NEVPT2, F12-NEVPT2, CIM, IAO-localization
   Andreas Hansen         : Spin unrestricted coupled pair/coupled cluster methods
   Benjamin Helmich-Paris : MC-RPA, TRAH-SCF, COSX integrals
   Lee Huntington         : MR-EOM, pCC
   Robert Izsak           : Overlap fitted RIJCOSX, COSX-SCS-MP3, EOM
   Marcus Kettner         : VPT2
   Christian Kollmar      : KDIIS, OOCD, Brueckner-CCSD(T), CCSD density, CASPT2, CASPT2-K
   Simone Kossmann        : Meta GGA functionals, TD-DFT gradient, OOMP2, MP2 Hessian
   Martin Krupicka        : Initial AUTO-CI
   Lucas Lang             : DCDCAS
   Marvin Lechner         : AUTO-CI (C++ implementation), FIC-MRCC
   Dagmar Lenk            : GEPOL surface, SMD
   Dimitrios Liakos       : Extrapolation schemes; Compound Job, initial MDCI parallelization
   Dimitrios Manganas     : Further ROCIS development; embedding schemes
   Dimitrios Pantazis     : SARC Basis sets
   Anastasios Papadopoulos: AUTO-CI, single reference methods and gradients
   Taras Petrenko         : DFT Hessian,TD-DFT gradient, ASA, ECA, R-Raman, ABS, FL, XAS/XES, NRVS
   Peter Pinski           : DLPNO-MP2, DLPNO-MP2 Gradient
   Christoph Reimann      : Effective Core Potentials
   Marius Retegan         : Local ZFS, SOC
   Christoph Riplinger    : Optimizer, TS searches, QM/MM, DLPNO-CCSD(T), (RO)-DLPNO pert. Triples
   Tobias Risthaus        : Range-separated hybrids, TD-DFT gradient, RPA, STAB
   Michael Roemelt        : Original ROCIS implementation
   Masaaki Saitow         : Open-shell DLPNO-CCSD energy and density
   Barbara Sandhoefer     : DKH picture change effects
   Avijit Sen             : IP-ROCIS
   Kantharuban Sivalingam : CASSCF convergence, NEVPT2, FIC-MRCI
   Bernardo de Souza      : ESD, SOC TD-DFT
   Georgi Stoychev        : AutoAux, RI-MP2 NMR, DLPNO-MP2 response
   Willem Van den Heuvel  : Paramagnetic NMR
   Boris Wezisla          : Elementary symmetry handling
   Frank Wennmohs         : Technical directorship


 We gratefully acknowledge several colleagues who have allowed us to
 interface, adapt or use parts of their codes:
   Stefan Grimme, W. Hujo, H. Kruse, P. Pracht,  : VdW corrections, initial TS optimization,
                  C. Bannwarth, S. Ehlert          DFT functionals, gCP, sTDA/sTD-DF
   Ed Valeev, F. Pavosevic, A. Kumar             : LibInt (2-el integral package), F12 methods
   Garnet Chan, S. Sharma, J. Yang, R. Olivares  : DMRG
   Ulf Ekstrom                                   : XCFun DFT Library
   Mihaly Kallay                                 : mrcc  (arbitrary order and MRCC methods)
   Jiri Pittner, Ondrej Demel                    : Mk-CCSD
   Frank Weinhold                                : gennbo (NPA and NBO analysis)
   Christopher J. Cramer and Donald G. Truhlar   : smd solvation model
   Lars Goerigk                                  : TD-DFT with DH, B97 family of functionals
   V. Asgeirsson, H. Jonsson                     : NEB implementation
   FAccTs GmbH                                   : IRC, NEB, NEB-TS, DLPNO-Multilevel, CI-OPT
                                                   MM, QMMM, 2- and 3-layer-ONIOM, Crystal-QMMM,
                                                   LR-CPCM, SF, NACMEs, symmetry and pop. for TD-DFT,
                                                   nearIR, NL-DFT gradient (VV10), updates on ESD,
                                                   ML-optimized integration grids
   S Lehtola, MJT Oliveira, MAL Marques          : LibXC Library
   Liviu Ungur et al                             : ANISO software


 Your calculation uses the libint2 library for the computation of 2-el integrals
 For citations please refer to: http://libint.valeyev.net

 Your ORCA version has been built with support for libXC version: 5.1.0
 For citations please refer to: https://tddft.org/programs/libxc/

 This ORCA versions uses:
   CBLAS   interface :  Fast vector & matrix operations
   LAPACKE interface :  Fast linear algebra routines
   SCALAPACK package :  Parallel linear algebra routines
   Shared memory     :  Shared parallel matrices
   BLAS/LAPACK       :  OpenBLAS 0.3.15  USE64BITINT DYNAMIC_ARCH NO_AFFINITY Zen SINGLE_THREADED
        Core in use  :  Zen
   Copyright (c) 2011-2014, The OpenBLAS Project




***************************************
The coordinates will be read from file: _10.xyz
***************************************


================================================================================

----- Orbital basis set information -----
Your calculation utilizes the basis: def2-SVP
   F. Weigend and R. Ahlrichs, Phys. Chem. Chem. Phys. 7, 3297 (2005).

----- AuxJ basis set information -----
Your calculation utilizes the auxiliary basis: def2/J
   F. Weigend, Phys. Chem. Chem. Phys. 8, 1057 (2006).

================================================================================
                                        WARNINGS
                       Please study these warnings very carefully!
================================================================================


INFO   : the flag for use of the SHARK integral package has been found!

================================================================================
                                       INPUT FILE
================================================================================
NAME = 10.inp
|  1> ! B3LYP DEF2-SVP TightSCF
|  2> %elprop
|  3> Polar 1
|  4> end
|  5> * xyzfile 0 1 _10.xyz
|  6> 
|  7>                          ****END OF INPUT****
================================================================================

                       ****************************
                       * Single Point Calculation *
                       ****************************

---------------------------------
CARTESIAN COORDINATES (ANGSTROEM)
---------------------------------
  C      3.706525    0.715639   -0.402662
  C      2.383556    0.058346   -0.148643
  C      1.809870    0.013392    1.036982
  C      0.497377   -0.666832    1.180937
  C     -0.469428   -0.407639    0.076943
  C      0.171065   -0.386160   -1.287727
  C      1.643615   -0.562917   -1.258596
  O      2.289196   -1.212766   -2.130328
  C     -1.451871   -1.531991    0.032019
  C     -1.468198   -2.457847    0.943856
  C     -2.443215   -1.549366   -1.070334
  O     -1.304219    0.717986    0.306424
  C     -0.956102    2.007750    0.498723
  O      0.261352    2.313256    0.483491
  C     -1.956619    3.106806    0.732043
  H      4.157008    0.321612   -1.317487
  H      3.594843    1.799526   -0.469550
  H      4.413363    0.478207    0.433610
  H      2.288803    0.462373    1.875784
  H      0.067784   -0.479608    2.176252
  H      0.781806   -1.772354    1.158669
  H     -0.019244    0.562863   -1.829362
  H     -0.210563   -1.182291   -1.968411
  H     -0.841221   -2.573533    1.812633
  H     -2.221942   -3.257530    0.843412
  H     -2.167313   -2.353765   -1.784488
  H     -2.466033   -0.591456   -1.643244
  H     -3.481752   -1.714139   -0.714505
  H     -2.919025    2.711379    1.072889
  H     -1.551214    3.748515    1.546895
  H     -2.138204    3.682547   -0.186227

----------------------------
CARTESIAN COORDINATES (A.U.)
----------------------------
  NO LB      ZA    FRAG     MASS         X           Y           Z
   0 C     6.0000    0    12.011    7.004317    1.352362   -0.760921
   1 C     6.0000    0    12.011    4.504268    0.110258   -0.280895
   2 C     6.0000    0    12.011    3.420159    0.025307    1.959612
   3 C     6.0000    0    12.011    0.939906   -1.260130    2.231648
   4 C     6.0000    0    12.011   -0.887090   -0.770326    0.145401
   5 C     6.0000    0    12.011    0.323266   -0.729737   -2.433451
   6 C     6.0000    0    12.011    3.105982   -1.063759   -2.378402
   7 O     8.0000    0    15.999    4.325954   -2.291796   -4.025736
   8 C     6.0000    0    12.011   -2.743639   -2.895043    0.060507
   9 C     6.0000    0    12.011   -2.774492   -4.644658    1.783629
  10 C     6.0000    0    12.011   -4.617007   -2.927877   -2.022638
  11 O     8.0000    0    15.999   -2.464617    1.356797    0.579057
  12 C     6.0000    0    12.011   -1.806771    3.794098    0.942450
  13 O     8.0000    0    15.999    0.493884    4.371420    0.913666
  14 C     6.0000    0    12.011   -3.697474    5.871012    1.383361
  15 H     1.0000    0     1.008    7.855607    0.607759   -2.489690
  16 H     1.0000    0     1.008    6.793269    3.400611   -0.887321
  17 H     1.0000    0     1.008    8.340047    0.903680    0.819404
  18 H     1.0000    0     1.008    4.325211    0.873758    3.544718
  19 H     1.0000    0     1.008    0.128093   -0.906328    4.112520
  20 H     1.0000    0     1.008    1.477399   -3.349264    2.189567
  21 H     1.0000    0     1.008   -0.036366    1.063657   -3.456993
  22 H     1.0000    0     1.008   -0.397906   -2.234206   -3.719758
  23 H     1.0000    0     1.008   -1.589677   -4.863273    3.425380
  24 H     1.0000    0     1.008   -4.198862   -6.155840    1.593818
  25 H     1.0000    0     1.008   -4.095628   -4.447971   -3.372194
  26 H     1.0000    0     1.008   -4.660127   -1.117690   -3.105281
  27 H     1.0000    0     1.008   -6.579558   -3.239253   -1.350219
  28 H     1.0000    0     1.008   -5.516158    5.123764    2.027466
  29 H     1.0000    0     1.008   -2.931370    7.083667    2.923208
  30 H     1.0000    0     1.008   -4.040620    6.959005   -0.351918

--------------------------------
INTERNAL COORDINATES (ANGSTROEM)
--------------------------------
 C      0   0   0     0.000000000000     0.00000000     0.00000000
 C      1   0   0     1.498935193786     0.00000000     0.00000000
 C      2   1   0     1.317893443848   123.47813722     0.00000000
 C      3   2   1     1.485283005777   119.17505447   180.15320933
 C      4   3   2     1.490199876295   114.95088464   318.79940634
 C      5   4   3     1.507652758227   113.41803889    40.00260320
 C      2   1   3     1.471555660129   120.07316375   178.99581585
 O      7   2   1     1.264513831552   118.70055321    39.85365925
 C      5   4   3     1.493780383433   108.54539628   156.58583375
 C      9   5   4     1.299585556335   121.56028293     6.87773423
 C      9   5   4     1.482648627818   118.09479329   185.30073103
 O      5   4   3     1.420059570464   113.54921768   269.75389537
 C     12   5   4     1.349687195904   128.96678736    59.85554332
 O     13  12   5     1.255292863031   118.75005608   359.96525548
 C     13  12   5     1.504458899680   123.27554098   179.96474912
 H      1   2   3     1.093204917041   110.33217669   158.61100511
 H      1   2   3     1.091676647381   110.82210613   281.21483708
 H      1   2   3     1.120421693316   109.71820279    41.26482961
 H      3   2   1     1.065152360958   119.89096812     0.17486726
 H      4   3   2     1.100115867102   110.78219275   189.49168101
 H      4   3   2     1.141741920203   102.79244021    76.35268478
 H      6   5   4     1.109157627768   112.41520549   236.32538035
 H      6   5   4     1.114807251233   113.39538092   117.77131539
 H     10   9   5     1.077616297600   129.40760783     0.07077484
 H     10   9   5     1.103499848283   117.45131687   180.08406291
 H     11   9   5     1.110493404087   108.69383855   107.42373780
 H     11   9   5     1.116395134943   112.65369847   348.70586753
 H     11   9   5     1.110100679731   112.88890017   228.90451874
 H     15  13  12     1.094880731806   111.65453448    20.04885730
 H     15  13  12     1.113610091823   106.99810162   137.38805795
 H     15  13  12     1.098940673652   111.28632890   259.66229637

---------------------------
INTERNAL COORDINATES (A.U.)
---------------------------
 C      0   0   0     0.000000000000     0.00000000     0.00000000
 C      1   0   0     2.832577008752     0.00000000     0.00000000
 C      2   1   0     2.490457682563   123.47813722     0.00000000
 C      3   2   1     2.806778112286   119.17505447   180.15320933
 C      4   3   2     2.816069651001   114.95088464   318.79940634
 C      5   4   3     2.849050818100   113.41803889    40.00260320
 C      2   1   3     2.780837188466   120.07316375   178.99581585
 O      7   2   1     2.389584834188   118.70055321    39.85365925
 C      5   4   3     2.822835828912   108.54539628   156.58583375
 C      9   5   4     2.455860789072   121.56028293     6.87773423
 C      9   5   4     2.801799859410   118.09479329   185.30073103
 O      5   4   3     2.683523682031   113.54921768   269.75389537
 C     12   5   4     2.550539166718   128.96678736    59.85554332
 O     13  12   5     2.372159728994   118.75005608   359.96525548
 C     13  12   5     2.843015300135   123.27554098   179.96474912
 H      1   2   3     2.065857901464   110.33217669   158.61100511
 H      1   2   3     2.062969890347   110.82210613   281.21483708
 H      1   2   3     2.117290154871   109.71820279    41.26482961
 H      3   2   1     2.012846253110   119.89096812     0.17486726
 H      4   3   2     2.078917704404   110.78219275   189.49168101
 H      4   3   2     2.157579544801   102.79244021    76.35268478
 H      6   5   4     2.096004155830   112.41520549   236.32538035
 H      6   5   4     2.106680396939   113.39538092   117.77131539
 H     10   9   5     2.036399679915   129.40760783     0.07077484
 H     10   9   5     2.085312502079   117.45131687   180.08406291
 H     11   9   5     2.098528407251   108.69383855   107.42373780
 H     11   9   5     2.109681062284   112.65369847   348.70586753
 H     11   9   5     2.097786265771   112.88890017   228.90451874
 H     15  13  12     2.069024732421   111.65453448    20.04885730
 H     15  13  12     2.104418093516   106.99810162   137.38805795
 H     15  13  12     2.076696910629   111.28632890   259.66229637

---------------------
BASIS SET INFORMATION
---------------------
There are 3 groups of distinct atoms

 Group   1 Type C   : 7s4p1d contracted to 3s2p1d pattern {511/31/1}
 Group   2 Type O   : 7s4p1d contracted to 3s2p1d pattern {511/31/1}
 Group   3 Type H   : 4s1p contracted to 2s1p pattern {31/1}

Atom   0C    basis set group =>   1
Atom   1C    basis set group =>   1
Atom   2C    basis set group =>   1
Atom   3C    basis set group =>   1
Atom   4C    basis set group =>   1
Atom   5C    basis set group =>   1
Atom   6C    basis set group =>   1
Atom   7O    basis set group =>   2
Atom   8C    basis set group =>   1
Atom   9C    basis set group =>   1
Atom  10C    basis set group =>   1
Atom  11O    basis set group =>   2
Atom  12C    basis set group =>   1
Atom  13O    basis set group =>   2
Atom  14C    basis set group =>   1
Atom  15H    basis set group =>   3
Atom  16H    basis set group =>   3
Atom  17H    basis set group =>   3
Atom  18H    basis set group =>   3
Atom  19H    basis set group =>   3
Atom  20H    basis set group =>   3
Atom  21H    basis set group =>   3
Atom  22H    basis set group =>   3
Atom  23H    basis set group =>   3
Atom  24H    basis set group =>   3
Atom  25H    basis set group =>   3
Atom  26H    basis set group =>   3
Atom  27H    basis set group =>   3
Atom  28H    basis set group =>   3
Atom  29H    basis set group =>   3
Atom  30H    basis set group =>   3
---------------------------------
AUXILIARY/J BASIS SET INFORMATION
---------------------------------
There are 3 groups of distinct atoms

 Group   1 Type C   : 12s5p4d2f1g contracted to 6s4p3d1f1g pattern {711111/2111/211/2/1}
 Group   2 Type O   : 12s5p4d2f1g contracted to 6s4p3d1f1g pattern {711111/2111/211/2/1}
 Group   3 Type H   : 5s2p1d contracted to 3s1p1d pattern {311/2/1}

Atom   0C    basis set group =>   1
Atom   1C    basis set group =>   1
Atom   2C    basis set group =>   1
Atom   3C    basis set group =>   1
Atom   4C    basis set group =>   1
Atom   5C    basis set group =>   1
Atom   6C    basis set group =>   1
Atom   7O    basis set group =>   2
Atom   8C    basis set group =>   1
Atom   9C    basis set group =>   1
Atom  10C    basis set group =>   1
Atom  11O    basis set group =>   2
Atom  12C    basis set group =>   1
Atom  13O    basis set group =>   2
Atom  14C    basis set group =>   1
Atom  15H    basis set group =>   3
Atom  16H    basis set group =>   3
Atom  17H    basis set group =>   3
Atom  18H    basis set group =>   3
Atom  19H    basis set group =>   3
Atom  20H    basis set group =>   3
Atom  21H    basis set group =>   3
Atom  22H    basis set group =>   3
Atom  23H    basis set group =>   3
Atom  24H    basis set group =>   3
Atom  25H    basis set group =>   3
Atom  26H    basis set group =>   3
Atom  27H    basis set group =>   3
Atom  28H    basis set group =>   3
Atom  29H    basis set group =>   3
Atom  30H    basis set group =>   3

Checking for AutoStart:
The File: 10.gbw exists
Trying to determine its content:
     ... Fine, the file contains calculation information
     ... Fine, the calculation information was read
     ... Fine, the file contains a basis set
     ... Fine, the basis set was read
     ... Fine, the file contains a geometry
     ... Fine, the geometry was read
     ... Fine, the file contains a set of orbitals
     ... Fine, the orbitals can be read
     => possible old guess file was deleted
     => GBW file was renamed to GES file
     => GES file is set as startup file
     => Guess is set to MORead
     ... now leaving AutoStart

------------------------------------------------------------------------------
                           ORCA GTO INTEGRAL CALCULATION
                           -- RI-GTO INTEGRALS CHOSEN --
------------------------------------------------------------------------------
------------------------------------------------------------------------------
                   ___                                                        
                  /   \      - P O W E R E D   B Y -                         
                 /     \                                                     
                 |  |  |   _    _      __       _____    __    __             
                 |  |  |  | |  | |    /  \     |  _  \  |  |  /  |          
                  \  \/   | |  | |   /    \    | | | |  |  | /  /          
                 / \  \   | |__| |  /  /\  \   | |_| |  |  |/  /          
                |  |  |   |  __  | /  /__\  \  |    /   |      \           
                |  |  |   | |  | | |   __   |  |    \   |  |\   \          
                \     /   | |  | | |  |  |  |  | |\  \  |  | \   \       
                 \___/    |_|  |_| |__|  |__|  |_| \__\ |__|  \__/        
                                                                              
                      - O R C A' S   B I G   F R I E N D -                    
                                      &                                       
                       - I N T E G R A L  F E E D E R -                       
                                                                              
 v1 FN, 2020, v2 2021                                                         
------------------------------------------------------------------------------


Reading SHARK input file 10.SHARKINP.tmp ... ok
----------------------
SHARK INTEGRAL PACKAGE
----------------------

Number of atoms                             ...     31
Number of basis functions                   ...    290
Number of shells                            ...    138
Maximum angular momentum                    ...      2
Integral batch strategy                     ... SHARK/LIBINT Hybrid
RI-J (if used) integral strategy            ... SPLIT-RIJ (Revised 2003 algorithm where possible)
Printlevel                                  ...      1
Contraction scheme used                     ... SEGMENTED contraction
Coulomb Range Separation                    ... NOT USED
Exchange Range Separation                   ... NOT USED
Finite Nucleus Model                        ... NOT USED
Auxiliary Coulomb fitting basis             ... AVAILABLE
   # of basis functions in Aux-J            ...    911
   # of shells in Aux-J                     ...    305
   Maximum angular momentum in Aux-J        ...      4
Auxiliary J/K fitting basis                 ... NOT available
Auxiliary Correlation fitting basis         ... NOT available
Auxiliary 'external' fitting basis          ... NOT available
Integral threshold                          ...     2.500000e-11
Primitive cut-off                           ...     2.500000e-12
Primitive pair pre-selection threshold      ...     2.500000e-12

Calculating pre-screening integrals         ... done (  0.1 sec) Dimension = 138
Organizing shell pair data                  ... done (  0.1 sec)
Shell pair information
Total number of shell pairs                 ...      9591
Shell pairs after pre-screening             ...      8268
Total number of primitive shell pairs       ...     34173
Primitive shell pairs kept                  ...     19979
          la=0 lb=0:   2642 shell pairs
          la=1 lb=0:   3074 shell pairs
          la=1 lb=1:    917 shell pairs
          la=2 lb=0:    968 shell pairs
          la=2 lb=1:    568 shell pairs
          la=2 lb=2:     99 shell pairs

Calculating one electron integrals          ... done (  0.1 sec)
Calculating RI/J V-Matrix + Cholesky decomp.... done (  0.1 sec)
Calculating Nuclear repulsion               ... done (  0.0 sec) ENN=   1056.773731707231 Eh

SHARK setup successfully completed in   0.7 seconds

Maximum memory used throughout the entire GTOINT-calculation: 52.8 MB
-------------------------------------------------------------------------------
                                 ORCA SCF
-------------------------------------------------------------------------------

------------
SCF SETTINGS
------------
Hamiltonian:
 Density Functional     Method          .... DFT(GTOs)
 Exchange Functional    Exchange        .... B88
   X-Alpha parameter    XAlpha          ....  0.666667
   Becke's b parameter  XBeta           ....  0.004200
 Correlation Functional Correlation     .... LYP
 LDA part of GGA corr.  LDAOpt          .... VWN-5
 Gradients option       PostSCFGGA      .... off
 Hybrid DFT is turned on
   Fraction HF Exchange ScalHFX         ....  0.200000
   Scaling of DF-GGA-X  ScalDFX         ....  0.720000
   Scaling of DF-GGA-C  ScalDFC         ....  0.810000
   Scaling of DF-LDA-C  ScalLDAC        ....  1.000000
   Perturbative correction              ....  0.000000
   Density functional embedding theory  .... OFF
   NL short-range parameter             ....  4.800000
 RI-approximation to the Coulomb term is turned on
   Number of AuxJ basis functions       .... 911
   RIJ-COSX (HFX calculated with COS-X)).... on


General Settings:
 Integral files         IntName         .... 10
 Hartree-Fock type      HFTyp           .... RHF
 Total Charge           Charge          ....    0
 Multiplicity           Mult            ....    1
 Number of Electrons    NEL             ....  112
 Basis Dimension        Dim             ....  290
 Nuclear Repulsion      ENuc            ....   1056.7737317072 Eh

Convergence Acceleration:
 DIIS                   CNVDIIS         .... on
   Start iteration      DIISMaxIt       ....    12
   Startup error        DIISStart       ....  0.200000
   # of expansion vecs  DIISMaxEq       ....     5
   Bias factor          DIISBfac        ....   1.050
   Max. coefficient     DIISMaxC        ....  10.000
 Trust-Rad. Augm. Hess. CNVTRAH         .... auto
   Auto Start mean grad. ratio tolernc. ....  1.125000
   Auto Start start iteration           ....     1
   Auto Start num. interpolation iter.  ....    10
   Max. Number of Micro iterations      ....    16
   Max. Number of Macro iterations      .... Maxiter - #DIIS iter
   Number of Davidson start vectors     ....     2
   Converg. threshold I  (grad. norm)   ....   1.000e-05
   Converg. threshold II (energy diff.) ....   1.000e-08
   Grad. Scal. Fac. for Micro threshold ....   0.100
   Minimum threshold for Micro iter.    ....   0.010
   NR start threshold (gradient norm)   ....   0.001
   Initial trust radius                 ....   0.400
   Minimum AH scaling param. (alpha)    ....   1.000
   Maximum AH scaling param. (alpha)    .... 1000.000
   Orbital update algorithm             .... Taylor
   White noise on init. David. guess    .... on
   Maximum white noise                  ....   0.010
   Quad. conv. algorithm                .... NR
 SOSCF                  CNVSOSCF        .... on
   Start iteration      SOSCFMaxIt      ....   150
   Startup grad/error   SOSCFStart      ....  0.003300
 Level Shifting         CNVShift        .... on
   Level shift para.    LevelShift      ....    0.2500
   Turn off err/grad.   ShiftErr        ....    0.0010
 Zerner damping         CNVZerner       .... off
 Static damping         CNVDamp         .... on
   Fraction old density DampFac         ....    0.7000
   Max. Damping (<1)    DampMax         ....    0.9800
   Min. Damping (>=0)   DampMin         ....    0.0000
   Turn off err/grad.   DampErr         ....    0.1000
 Fernandez-Rico         CNVRico         .... off

SCF Procedure:
 Maximum # iterations   MaxIter         ....   125
 SCF integral mode      SCFMode         .... Direct
   Integral package                     .... SHARK and LIBINT hybrid scheme
 Reset frequency        DirectResetFreq ....    20
 Integral Threshold     Thresh          ....  2.500e-11 Eh
 Primitive CutOff       TCut            ....  2.500e-12 Eh

Convergence Tolerance:
 Convergence Check Mode ConvCheckMode   .... Total+1el-Energy
 Convergence forced     ConvForced      .... 0
 Energy Change          TolE            ....  1.000e-08 Eh
 1-El. energy change                    ....  1.000e-05 Eh
 Orbital Gradient       TolG            ....  1.000e-05
 Orbital Rotation angle TolX            ....  1.000e-05
 DIIS Error             TolErr          ....  5.000e-07


Diagonalization of the overlap matrix:
Smallest eigenvalue                        ... 3.494e-04
Time for diagonalization                   ...    0.035 sec
Threshold for overlap eigenvalues          ... 1.000e-08
Number of eigenvalues below threshold      ... 0
Time for construction of square roots      ...    0.011 sec
Total time needed                          ...    0.046 sec

---------------------
INITIAL GUESS: MOREAD
---------------------
Guess MOs are being read from file: 10.ges
Input Geometry matches current geometry (good)
Input basis set matches current basis set (good)
MOs were renormalized
MOs were reorthogonalized (Cholesky)
                      ------------------
                      INITIAL GUESS DONE (   0.0 sec)
                      ------------------
-------------------
DFT GRID GENERATION
-------------------

General Integration Accuracy     IntAcc      ... 4.388
Radial Grid Type                 RadialGrid  ... OptM3 with GC (2021)
Angular Grid (max. ang.)         AngularGrid ... 4 (Lebedev-302)
Angular grid pruning method      GridPruning ... 4 (adaptive)
Weight generation scheme         WeightScheme... Becke
Basis function cutoff            BFCut       ... 1.0000e-11
Integration weight cutoff        WCut        ... 1.0000e-14
Angular grids for H and He will be reduced by one unit
Partially contracted basis set               ... off
Rotationally invariant grid construction     ... off

Total number of grid points                  ...   140635
Total number of batches                      ...     2211
Average number of points per batch           ...       63
Average number of grid points per atom       ...     4537
Time for grid setup =    4.585 sec

--------------------
COSX GRID GENERATION
--------------------

GRIDX 1
-------
General Integration Accuracy     IntAcc      ... 3.816
Radial Grid Type                 RadialGrid  ... OptM3 with GC (2021)
Angular Grid (max. ang.)         AngularGrid ... 1 (Lebedev-50)
Angular grid pruning method      GridPruning ... 4 (adaptive)
Weight generation scheme         WeightScheme... Becke
Basis function cutoff            BFCut       ... 1.0000e-11
Integration weight cutoff        WCut        ... 1.0000e-14
Angular grids for H and He will be reduced by one unit
Partially contracted basis set               ... on
Rotationally invariant grid construction     ... off

Total number of grid points                  ...    17912
Total number of batches                      ...      298
Average number of points per batch           ...       60
Average number of grid points per atom       ...      578
UseSFitting                                  ... on

GRIDX 2
-------
General Integration Accuracy     IntAcc      ... 4.020
Radial Grid Type                 RadialGrid  ... OptM3 with GC (2021)
Angular Grid (max. ang.)         AngularGrid ... 2 (Lebedev-110)
Angular grid pruning method      GridPruning ... 4 (adaptive)
Weight generation scheme         WeightScheme... Becke
Basis function cutoff            BFCut       ... 1.0000e-11
Integration weight cutoff        WCut        ... 1.0000e-14
Angular grids for H and He will be reduced by one unit
Partially contracted basis set               ... on
Rotationally invariant grid construction     ... off

Total number of grid points                  ...    38216
Total number of batches                      ...      613
Average number of points per batch           ...       62
Average number of grid points per atom       ...     1233
UseSFitting                                  ... on

GRIDX 3
-------
General Integration Accuracy     IntAcc      ... 4.338
Radial Grid Type                 RadialGrid  ... OptM3 with GC (2021)
Angular Grid (max. ang.)         AngularGrid ... 3 (Lebedev-194)
Angular grid pruning method      GridPruning ... 4 (adaptive)
Weight generation scheme         WeightScheme... Becke
Basis function cutoff            BFCut       ... 1.0000e-11
Integration weight cutoff        WCut        ... 1.0000e-14
Angular grids for H and He will be reduced by one unit
Partially contracted basis set               ... on
Rotationally invariant grid construction     ... off

Total number of grid points                  ...    83472
Total number of batches                      ...     1321
Average number of points per batch           ...       63
Average number of grid points per atom       ...     2693
UseSFitting                                  ... on

Time for X-Grid setup             =    6.157 sec

--------------
SCF ITERATIONS
--------------
ITER       Energy         Delta-E        Max-DP      RMS-DP      [F,P]     Damp
               ***  Starting incremental Fock matrix formation  ***
                      *** Initiating the SOSCF procedure ***
                      *** Re-Reading the Fockian *** 
                      *** Removing any level shift *** 
ITER      Energy       Delta-E        Grad      Rot      Max-DP    RMS-DP
  0   -691.59029190 -691.5902919039  0.000002  0.000002  0.000005  0.000000
               *** Restarting incremental Fock matrix formation ***
                  ***Gradient check signals convergence***
              ***Rediagonalizing the Fockian in SOSCF/NRSCF***

               *****************************************************
               *                     SUCCESS                       *
               *           SCF CONVERGED AFTER   1 CYCLES          *
               *****************************************************

Old exchange energy                            =    -18.495787939 Eh
New exchange energy                            =    -18.495851011 Eh
Exchange energy change after final integration =     -0.000063073 Eh
Total energy after final integration           =   -691.590354977 Eh
Final COS-X integration done in                =    69.504 sec

----------------
TOTAL SCF ENERGY
----------------

Total Energy       :         -691.59035498 Eh          -18819.13031 eV

Components:
Nuclear Repulsion  :         1056.77373171 Eh           28756.27518 eV
Electronic Energy  :        -1748.36408668 Eh          -47575.40549 eV
One Electron Energy:        -3038.60270633 Eh          -82684.58324 eV
Two Electron Energy:         1290.23861964 Eh           35109.17776 eV
Max COSX asymmetry :            0.00000400 Eh               0.00011 eV

Virial components:
Potential Energy   :        -1376.82814359 Eh          -37465.39849 eV
Kinetic Energy     :          685.23778861 Eh           18646.26819 eV
Virial Ratio       :            2.00927060


DFT components:
N(Alpha)           :       56.000022534737 electrons
N(Beta)            :       56.000022534737 electrons
N(Total)           :      112.000045069473 electrons
E(X)               :      -73.469068786847 Eh       
E(C)               :       -4.461056799407 Eh       
E(XC)              :      -77.930125586253 Eh       
DFET-embed. en.    :        0.000000000000 Eh       

---------------
SCF CONVERGENCE
---------------

  Last Energy change         ...   -5.0363e-11  Tolerance :   1.0000e-08
  Last MAX-Density change    ...    4.8850e-15  Tolerance :   1.0000e-07
  Last RMS-Density change    ...    3.9455e-17  Tolerance :   5.0000e-09
  Last Orbital Gradient      ...    2.2699e-06  Tolerance :   1.0000e-05
  Last Orbital Rotation      ...    7.7626e-06  Tolerance :   1.0000e-05

             **** THE GBW FILE WAS UPDATED (10.gbw) ****
             **** DENSITY 10.scfp WAS UPDATED ****
             **** ENERGY FILE WAS UPDATED (10.en.tmp) ****
             **** THE GBW FILE WAS UPDATED (10.gbw) ****
             **** DENSITY 10.scfp WAS UPDATED ****
----------------
ORBITAL ENERGIES
----------------

  NO   OCC          E(Eh)            E(eV) 
   0   2.0000     -19.182607      -521.9853 
   1   2.0000     -19.113358      -520.1009 
   2   2.0000     -19.107487      -519.9411 
   3   2.0000     -10.326293      -280.9927 
   4   2.0000     -10.267347      -279.3887 
   5   2.0000     -10.259029      -279.1624 
   6   2.0000     -10.213396      -277.9206 
   7   2.0000     -10.196740      -277.4674 
   8   2.0000     -10.195460      -277.4326 
   9   2.0000     -10.193911      -277.3904 
  10   2.0000     -10.191112      -277.3143 
  11   2.0000     -10.180417      -277.0232 
  12   2.0000     -10.177342      -276.9396 
  13   2.0000     -10.170907      -276.7645 
  14   2.0000     -10.170833      -276.7624 
  15   2.0000      -1.096049       -29.8250 
  16   2.0000      -0.991384       -26.9769 
  17   2.0000      -0.988549       -26.8998 
  18   2.0000      -0.864447       -23.5228 
  19   2.0000      -0.811209       -22.0741 
  20   2.0000      -0.765531       -20.8312 
  21   2.0000      -0.749386       -20.3918 
  22   2.0000      -0.739160       -20.1136 
  23   2.0000      -0.691045       -18.8043 
  24   2.0000      -0.685042       -18.6410 
  25   2.0000      -0.637189       -17.3388 
  26   2.0000      -0.598198       -16.2778 
  27   2.0000      -0.578875       -15.7520 
  28   2.0000      -0.531223       -14.4553 
  29   2.0000      -0.509814       -13.8727 
  30   2.0000      -0.498243       -13.5579 
  31   2.0000      -0.493718       -13.4348 
  32   2.0000      -0.476225       -12.9587 
  33   2.0000      -0.465120       -12.6566 
  34   2.0000      -0.455745       -12.4014 
  35   2.0000      -0.451508       -12.2862 
  36   2.0000      -0.437248       -11.8981 
  37   2.0000      -0.424374       -11.5478 
  38   2.0000      -0.419819       -11.4238 
  39   2.0000      -0.414518       -11.2796 
  40   2.0000      -0.411217       -11.1898 
  41   2.0000      -0.401430       -10.9235 
  42   2.0000      -0.396159       -10.7800 
  43   2.0000      -0.391544       -10.6545 
  44   2.0000      -0.380558       -10.3555 
  45   2.0000      -0.371015       -10.0958 
  46   2.0000      -0.367495       -10.0001 
  47   2.0000      -0.354348        -9.6423 
  48   2.0000      -0.345600        -9.4043 
  49   2.0000      -0.338823        -9.2198 
  50   2.0000      -0.322132        -8.7657 
  51   2.0000      -0.304325        -8.2811 
  52   2.0000      -0.272624        -7.4185 
  53   2.0000      -0.268985        -7.3195 
  54   2.0000      -0.238835        -6.4990 
  55   2.0000      -0.230815        -6.2808 
  56   0.0000      -0.042281        -1.1505 
  57   0.0000      -0.011905        -0.3240 
  58   0.0000      -0.000164        -0.0045 
  59   0.0000       0.043908         1.1948 
  60   0.0000       0.052910         1.4398 
  61   0.0000       0.068002         1.8504 
  62   0.0000       0.076930         2.0934 
  63   0.0000       0.090403         2.4600 
  64   0.0000       0.094900         2.5824 
  65   0.0000       0.099318         2.7026 
  66   0.0000       0.104893         2.8543 
  67   0.0000       0.111771         3.0415 
  68   0.0000       0.118720         3.2305 
  69   0.0000       0.131464         3.5773 
  70   0.0000       0.136507         3.7145 
  71   0.0000       0.147214         4.0059 
  72   0.0000       0.150302         4.0899 
  73   0.0000       0.157212         4.2779 
  74   0.0000       0.161094         4.3836 
  75   0.0000       0.169870         4.6224 
  76   0.0000       0.177311         4.8249 
  77   0.0000       0.204180         5.5560 
  78   0.0000       0.219806         5.9812 
  79   0.0000       0.230964         6.2848 
  80   0.0000       0.236206         6.4275 
  81   0.0000       0.254951         6.9376 
  82   0.0000       0.266262         7.2454 
  83   0.0000       0.284340         7.7373 
  84   0.0000       0.286869         7.8061 
  85   0.0000       0.304223         8.2783 
  86   0.0000       0.311669         8.4810 
  87   0.0000       0.321437         8.7467 
  88   0.0000       0.358796         9.7633 
  89   0.0000       0.372695        10.1416 
  90   0.0000       0.402193        10.9442 
  91   0.0000       0.408681        11.1208 
  92   0.0000       0.417275        11.3546 
  93   0.0000       0.425213        11.5706 
  94   0.0000       0.443699        12.0737 
  95   0.0000       0.447753        12.1840 
  96   0.0000       0.459915        12.5149 
  97   0.0000       0.468101        12.7377 
  98   0.0000       0.484810        13.1924 
  99   0.0000       0.488459        13.2916 
 100   0.0000       0.497501        13.5377 
 101   0.0000       0.500753        13.6262 
 102   0.0000       0.508621        13.8403 
 103   0.0000       0.526324        14.3220 
 104   0.0000       0.542675        14.7669 
 105   0.0000       0.549687        14.9577 
 106   0.0000       0.555476        15.1153 
 107   0.0000       0.565907        15.3991 
 108   0.0000       0.574337        15.6285 
 109   0.0000       0.583851        15.8874 
 110   0.0000       0.596140        16.2218 
 111   0.0000       0.609589        16.5878 
 112   0.0000       0.611056        16.6277 
 113   0.0000       0.618531        16.8311 
 114   0.0000       0.626682        17.0529 
 115   0.0000       0.631416        17.1817 
 116   0.0000       0.639776        17.4092 
 117   0.0000       0.642355        17.4794 
 118   0.0000       0.646102        17.5813 
 119   0.0000       0.650000        17.6874 
 120   0.0000       0.654086        17.7986 
 121   0.0000       0.655776        17.8446 
 122   0.0000       0.661410        17.9979 
 123   0.0000       0.666466        18.1355 
 124   0.0000       0.667627        18.1670 
 125   0.0000       0.676088        18.3973 
 126   0.0000       0.683596        18.6016 
 127   0.0000       0.685110        18.6428 
 128   0.0000       0.687714        18.7136 
 129   0.0000       0.690603        18.7923 
 130   0.0000       0.697792        18.9879 
 131   0.0000       0.703579        19.1454 
 132   0.0000       0.705833        19.2067 
 133   0.0000       0.717055        19.5121 
 134   0.0000       0.723876        19.6977 
 135   0.0000       0.736480        20.0406 
 136   0.0000       0.756779        20.5930 
 137   0.0000       0.774105        21.0645 
 138   0.0000       0.778523        21.1847 
 139   0.0000       0.806930        21.9577 
 140   0.0000       0.820355        22.3230 
 141   0.0000       0.833418        22.6785 
 142   0.0000       0.846238        23.0273 
 143   0.0000       0.881238        23.9797 
 144   0.0000       0.899750        24.4834 
 145   0.0000       0.909269        24.7425 
 146   0.0000       0.937619        25.5139 
 147   0.0000       0.971229        26.4285 
 148   0.0000       0.982199        26.7270 
 149   0.0000       0.996082        27.1048 
 150   0.0000       1.015763        27.6403 
 151   0.0000       1.021084        27.7851 
 152   0.0000       1.040448        28.3120 
 153   0.0000       1.071980        29.1701 
 154   0.0000       1.101326        29.9686 
 155   0.0000       1.124471        30.5984 
 156   0.0000       1.134492        30.8711 
 157   0.0000       1.163109        31.6498 
 158   0.0000       1.192740        32.4561 
 159   0.0000       1.206962        32.8431 
 160   0.0000       1.218939        33.1690 
 161   0.0000       1.234890        33.6031 
 162   0.0000       1.251111        34.0445 
 163   0.0000       1.271721        34.6053 
 164   0.0000       1.277717        34.7684 
 165   0.0000       1.303765        35.4772 
 166   0.0000       1.312108        35.7043 
 167   0.0000       1.341644        36.5080 
 168   0.0000       1.369603        37.2688 
 169   0.0000       1.413593        38.4658 
 170   0.0000       1.427689        38.8494 
 171   0.0000       1.448344        39.4114 
 172   0.0000       1.472064        40.0569 
 173   0.0000       1.480853        40.2961 
 174   0.0000       1.494416        40.6651 
 175   0.0000       1.506552        40.9954 
 176   0.0000       1.534212        41.7480 
 177   0.0000       1.538983        41.8778 
 178   0.0000       1.546606        42.0853 
 179   0.0000       1.559921        42.4476 
 180   0.0000       1.567067        42.6421 
 181   0.0000       1.573447        42.8157 
 182   0.0000       1.585261        43.1371 
 183   0.0000       1.610004        43.8104 
 184   0.0000       1.649404        44.8826 
 185   0.0000       1.658433        45.1283 
 186   0.0000       1.677845        45.6565 
 187   0.0000       1.684608        45.8405 
 188   0.0000       1.697489        46.1910 
 189   0.0000       1.700568        46.2748 
 190   0.0000       1.711848        46.5817 
 191   0.0000       1.729868        47.0721 
 192   0.0000       1.741827        47.3975 
 193   0.0000       1.744910        47.4814 
 194   0.0000       1.759338        47.8740 
 195   0.0000       1.767534        48.0970 
 196   0.0000       1.773542        48.2605 
 197   0.0000       1.779891        48.4333 
 198   0.0000       1.789827        48.7037 
 199   0.0000       1.797786        48.9202 
 200   0.0000       1.801767        49.0286 
 201   0.0000       1.807160        49.1753 
 202   0.0000       1.820755        49.5453 
 203   0.0000       1.830770        49.8178 
 204   0.0000       1.842535        50.1379 
 205   0.0000       1.857935        50.5570 
 206   0.0000       1.865937        50.7747 
 207   0.0000       1.878457        51.1154 
 208   0.0000       1.895339        51.5748 
 209   0.0000       1.905105        51.8405 
 210   0.0000       1.931898        52.5696 
 211   0.0000       1.942651        52.8622 
 212   0.0000       1.944649        52.9166 
 213   0.0000       1.954705        53.1902 
 214   0.0000       1.976845        53.7927 
 215   0.0000       1.988136        54.0999 
 216   0.0000       1.997986        54.3680 
 217   0.0000       2.011635        54.7394 
 218   0.0000       2.027694        55.1764 
 219   0.0000       2.045025        55.6479 
 220   0.0000       2.052440        55.8497 
 221   0.0000       2.055131        55.9230 
 222   0.0000       2.069414        56.3116 
 223   0.0000       2.089157        56.8488 
 224   0.0000       2.096821        57.0574 
 225   0.0000       2.110076        57.4181 
 226   0.0000       2.144949        58.3670 
 227   0.0000       2.150326        58.5133 
 228   0.0000       2.171338        59.0851 
 229   0.0000       2.195728        59.7488 
 230   0.0000       2.230816        60.7036 
 231   0.0000       2.249044        61.1996 
 232   0.0000       2.255442        61.3737 
 233   0.0000       2.276942        61.9587 
 234   0.0000       2.291894        62.3656 
 235   0.0000       2.325299        63.2746 
 236   0.0000       2.338452        63.6325 
 237   0.0000       2.362695        64.2922 
 238   0.0000       2.367031        64.4102 
 239   0.0000       2.397335        65.2348 
 240   0.0000       2.399785        65.3015 
 241   0.0000       2.445294        66.5398 
 242   0.0000       2.447126        66.5897 
 243   0.0000       2.456366        66.8411 
 244   0.0000       2.464756        67.0694 
 245   0.0000       2.490166        67.7609 
 246   0.0000       2.511621        68.3447 
 247   0.0000       2.531545        68.8868 
 248   0.0000       2.549150        69.3659 
 249   0.0000       2.555158        69.5294 
 250   0.0000       2.578934        70.1764 
 251   0.0000       2.600164        70.7541 
 252   0.0000       2.620153        71.2980 
 253   0.0000       2.641334        71.8743 
 254   0.0000       2.652473        72.1775 
 255   0.0000       2.672986        72.7356 
 256   0.0000       2.681535        72.9683 
 257   0.0000       2.695809        73.3567 
 258   0.0000       2.711945        73.7958 
 259   0.0000       2.728416        74.2440 
 260   0.0000       2.735205        74.4287 
 261   0.0000       2.758822        75.0714 
 262   0.0000       2.782893        75.7264 
 263   0.0000       2.803166        76.2780 
 264   0.0000       2.824246        76.8517 
 265   0.0000       2.837226        77.2048 
 266   0.0000       2.850350        77.5620 
 267   0.0000       2.880216        78.3747 
 268   0.0000       2.882576        78.4389 
 269   0.0000       2.917472        79.3885 
 270   0.0000       2.922596        79.5279 
 271   0.0000       2.931308        79.7649 
 272   0.0000       2.946441        80.1767 
 273   0.0000       2.949172        80.2511 
 274   0.0000       2.967696        80.7551 
 275   0.0000       2.985863        81.2495 
 276   0.0000       3.010532        81.9207 
 277   0.0000       3.038491        82.6815 
 278   0.0000       3.050907        83.0194 
 279   0.0000       3.112052        84.6832 
 280   0.0000       3.124361        85.0182 
 281   0.0000       3.175071        86.3981 
 282   0.0000       3.219814        87.6156 
 283   0.0000       3.305749        89.9540 
 284   0.0000       3.337792        90.8259 
 285   0.0000       3.384186        92.0884 
 286   0.0000       3.451470        93.9193 
 287   0.0000       3.561139        96.9035 
 288   0.0000       3.600647        97.9786 
 289   0.0000       3.664831        99.7251 

                    ********************************
                    * MULLIKEN POPULATION ANALYSIS *
                    ********************************

-----------------------
MULLIKEN ATOMIC CHARGES
-----------------------
   0 C :    0.100468
   1 C :   -0.088434
   2 C :   -0.041316
   3 C :    0.180226
   4 C :    0.010974
   5 C :    0.226848
   6 C :   -0.027443
   7 O :   -0.244177
   8 C :   -0.143111
   9 C :   -0.015504
  10 C :    0.085542
  11 O :   -0.299958
  12 C :    0.143213
  13 O :   -0.288795
  14 C :    0.054881
  15 H :    0.019157
  16 H :    0.030267
  17 H :    0.009963
  18 H :   -0.042453
  19 H :    0.008331
  20 H :    0.046938
  21 H :    0.036557
  22 H :    0.014323
  23 H :    0.005475
  24 H :   -0.006155
  25 H :    0.038774
  26 H :    0.012320
  27 H :    0.028169
  28 H :    0.024069
  29 H :    0.060767
  30 H :    0.060088
Sum of atomic charges:   -0.0000000

--------------------------------
MULLIKEN REDUCED ORBITAL CHARGES
--------------------------------
  0 C s       :     2.916737  s :     2.916737
      pz      :     1.006683  p :     2.954438
      px      :     0.957285
      py      :     0.990470
      dz2     :     0.005269  d :     0.028357
      dxz     :     0.007361
      dyz     :     0.002600
      dx2y2   :     0.008232
      dxy     :     0.004895
  1 C s       :     3.089087  s :     3.089087
      pz      :     0.963668  p :     2.956836
      px      :     0.989871
      py      :     1.003297
      dz2     :     0.009041  d :     0.042511
      dxz     :     0.013665
      dyz     :     0.007654
      dx2y2   :     0.006003
      dxy     :     0.006149
  2 C s       :     3.232901  s :     3.232901
      pz      :     0.940935  p :     2.770659
      px      :     0.900462
      py      :     0.929263
      dz2     :     0.009086  d :     0.037756
      dxz     :     0.011007
      dyz     :     0.007111
      dx2y2   :     0.004847
      dxy     :     0.005705
  3 C s       :     2.873574  s :     2.873574
      pz      :     0.958804  p :     2.909488
      px      :     0.953734
      py      :     0.996950
      dz2     :     0.008184  d :     0.036713
      dxz     :     0.009896
      dyz     :     0.002546
      dx2y2   :     0.008961
      dxy     :     0.007125
  4 C s       :     3.090302  s :     3.090302
      pz      :     1.011304  p :     2.819742
      px      :     0.952355
      py      :     0.856083
      dz2     :     0.016165  d :     0.078982
      dxz     :     0.015048
      dyz     :     0.012091
      dx2y2   :     0.013332
      dxy     :     0.022345
  5 C s       :     2.841470  s :     2.841470
      pz      :     0.956018  p :     2.899134
      px      :     0.979531
      py      :     0.963585
      dz2     :     0.007012  d :     0.032549
      dxz     :     0.006525
      dyz     :     0.006974
      dx2y2   :     0.008070
      dxy     :     0.003968
  6 C s       :     3.164952  s :     3.164952
      pz      :     0.895630  p :     2.773316
      px      :     1.017078
      py      :     0.860608
      dz2     :     0.020947  d :     0.089175
      dxz     :     0.020303
      dyz     :     0.014674
      dx2y2   :     0.018071
      dxy     :     0.015180
  7 O s       :     3.771034  s :     3.771034
      pz      :     1.434194  p :     4.457608
      px      :     1.679285
      py      :     1.344129
      dz2     :     0.003466  d :     0.015535
      dxz     :     0.003762
      dyz     :     0.003569
      dx2y2   :     0.002104
      dxy     :     0.002635
  8 C s       :     3.110885  s :     3.110885
      pz      :     1.006878  p :     2.985901
      px      :     1.006580
      py      :     0.972442
      dz2     :     0.011050  d :     0.046326
      dxz     :     0.009817
      dyz     :     0.009067
      dx2y2   :     0.006428
      dxy     :     0.009964
  9 C s       :     3.129800  s :     3.129800
      pz      :     0.933810  p :     2.857404
      px      :     0.924007
      py      :     0.999587
      dz2     :     0.007372  d :     0.028300
      dxz     :     0.005670
      dyz     :     0.005326
      dx2y2   :     0.003759
      dxy     :     0.006173
 10 C s       :     2.932817  s :     2.932817
      pz      :     0.986898  p :     2.953025
      px      :     0.973507
      py      :     0.992620
      dz2     :     0.003800  d :     0.028616
      dxz     :     0.007090
      dyz     :     0.008083
      dx2y2   :     0.007499
      dxy     :     0.002144
 11 O s       :     3.714601  s :     3.714601
      pz      :     1.722383  p :     4.570999
      px      :     1.658898
      py      :     1.189718
      dz2     :     0.002066  d :     0.014358
      dxz     :     0.001447
      dyz     :     0.002409
      dx2y2   :     0.003438
      dxy     :     0.004998
 12 C s       :     3.108436  s :     3.108436
      pz      :     0.821980  p :     2.625207
      px      :     0.943308
      py      :     0.859919
      dz2     :     0.007404  d :     0.123144
      dxz     :     0.019089
      dyz     :     0.015658
      dx2y2   :     0.039053
      dxy     :     0.041941
 13 O s       :     3.790206  s :     3.790206
      pz      :     1.406966  p :     4.482632
      px      :     1.317852
      py      :     1.757814
      dz2     :     0.001823  d :     0.015958
      dxz     :     0.004654
      dyz     :     0.000374
      dx2y2   :     0.005153
      dxy     :     0.003954
 14 C s       :     2.946944  s :     2.946944
      pz      :     1.021742  p :     2.972811
      px      :     0.965802
      py      :     0.985267
      dz2     :     0.004630  d :     0.025363
      dxz     :     0.003704
      dyz     :     0.006135
      dx2y2   :     0.003233
      dxy     :     0.007661
 15 H s       :     0.956915  s :     0.956915
      pz      :     0.011939  p :     0.023928
      px      :     0.005704
      py      :     0.006285
 16 H s       :     0.945779  s :     0.945779
      pz      :     0.005373  p :     0.023954
      px      :     0.004475
      py      :     0.014106
 17 H s       :     0.967320  s :     0.967320
      pz      :     0.009636  p :     0.022717
      px      :     0.007963
      py      :     0.005118
 18 H s       :     1.018342  s :     1.018342
      pz      :     0.011325  p :     0.024111
      px      :     0.005867
      py      :     0.006918
 19 H s       :     0.969529  s :     0.969529
      pz      :     0.012155  p :     0.022140
      px      :     0.005060
      py      :     0.004924
 20 H s       :     0.929449  s :     0.929449
      pz      :     0.004190  p :     0.023613
      px      :     0.005823
      py      :     0.013600
 21 H s       :     0.939689  s :     0.939689
      pz      :     0.006655  p :     0.023755
      px      :     0.004979
      py      :     0.012120
 22 H s       :     0.962971  s :     0.962971
      pz      :     0.007696  p :     0.022706
      px      :     0.005221
      py      :     0.009790
 23 H s       :     0.968773  s :     0.968773
      pz      :     0.011557  p :     0.025752
      px      :     0.009048
      py      :     0.005146
 24 H s       :     0.982832  s :     0.982832
      pz      :     0.004455  p :     0.023323
      px      :     0.009187
      py      :     0.009681
 25 H s       :     0.937763  s :     0.937763
      pz      :     0.008543  p :     0.023463
      px      :     0.005131
      py      :     0.009789
 26 H s       :     0.965095  s :     0.965095
      pz      :     0.006666  p :     0.022585
      px      :     0.004387
      py      :     0.011532
 27 H s       :     0.948987  s :     0.948987
      pz      :     0.005012  p :     0.022845
      px      :     0.012582
      py      :     0.005251
 28 H s       :     0.952533  s :     0.952533
      pz      :     0.005857  p :     0.023399
      px      :     0.012037
      py      :     0.005505
 29 H s       :     0.916302  s :     0.916302
      pz      :     0.009661  p :     0.022931
      px      :     0.005784
      py      :     0.007486
 30 H s       :     0.915796  s :     0.915796
      pz      :     0.011331  p :     0.024116
      px      :     0.005361
      py      :     0.007425


                     *******************************
                     * LOEWDIN POPULATION ANALYSIS *
                     *******************************

----------------------
LOEWDIN ATOMIC CHARGES
----------------------
   0 C :   -0.039824
   1 C :   -0.069807
   2 C :    0.010444
   3 C :   -0.033728
   4 C :    0.058381
   5 C :   -0.040825
   6 C :    0.096417
   7 O :   -0.193801
   8 C :   -0.033320
   9 C :   -0.053646
  10 C :   -0.047770
  11 O :   -0.078379
  12 C :    0.112028
  13 O :   -0.227127
  14 C :   -0.064576
  15 H :    0.030125
  16 H :    0.034633
  17 H :    0.032120
  18 H :    0.017974
  19 H :    0.033131
  20 H :    0.056563
  21 H :    0.059151
  22 H :    0.048685
  23 H :    0.018704
  24 H :    0.022236
  25 H :    0.040131
  26 H :    0.027757
  27 H :    0.037287
  28 H :    0.034632
  29 H :    0.057894
  30 H :    0.054511

-------------------------------
LOEWDIN REDUCED ORBITAL CHARGES
-------------------------------
  0 C s       :     2.830806  s :     2.830806
      pz      :     1.065560  p :     3.135891
      px      :     1.015829
      py      :     1.054502
      dz2     :     0.013684  d :     0.073127
      dxz     :     0.019488
      dyz     :     0.006208
      dx2y2   :     0.021230
      dxy     :     0.012518
  1 C s       :     2.857744  s :     2.857744
      pz      :     1.081104  p :     3.102791
      px      :     1.027164
      py      :     0.994523
      dz2     :     0.026634  d :     0.109273
      dxz     :     0.037038
      dyz     :     0.019429
      dx2y2   :     0.012509
      dxy     :     0.013662
  2 C s       :     2.858614  s :     2.858614
      pz      :     1.079337  p :     3.033725
      px      :     1.004441
      py      :     0.949948
      dz2     :     0.026619  d :     0.097217
      dxz     :     0.029220
      dyz     :     0.017105
      dx2y2   :     0.011024
      dxy     :     0.013249
  3 C s       :     2.829811  s :     2.829811
      pz      :     1.029361  p :     3.110104
      px      :     1.030904
      py      :     1.049839
      dz2     :     0.021845  d :     0.093813
      dxz     :     0.025932
      dyz     :     0.005614
      dx2y2   :     0.022964
      dxy     :     0.017459
  4 C s       :     2.824652  s :     2.824652
      pz      :     1.054253  p :     2.935839
      px      :     1.000921
      py      :     0.880665
      dz2     :     0.037522  d :     0.181128
      dxz     :     0.039138
      dyz     :     0.023690
      dx2y2   :     0.026220
      dxy     :     0.054558
  5 C s       :     2.840857  s :     2.840857
      pz      :     1.013752  p :     3.112477
      px      :     1.036607
      py      :     1.062117
      dz2     :     0.018950  d :     0.087491
      dxz     :     0.018045
      dyz     :     0.018591
      dx2y2   :     0.022531
      dxy     :     0.009373
  6 C s       :     2.875729  s :     2.875729
      pz      :     0.938896  p :     2.825042
      px      :     1.036498
      py      :     0.849648
      dz2     :     0.046163  d :     0.202813
      dxz     :     0.048282
      dyz     :     0.033957
      dx2y2   :     0.041064
      dxy     :     0.033348
  7 O s       :     3.582981  s :     3.582981
      pz      :     1.491632  p :     4.584203
      px      :     1.714424
      py      :     1.378147
      dz2     :     0.004990  d :     0.026617
      dxz     :     0.007052
      dyz     :     0.006963
      dx2y2   :     0.002993
      dxy     :     0.004619
  8 C s       :     2.856126  s :     2.856126
      pz      :     1.040522  p :     3.060859
      px      :     0.984074
      py      :     1.036263
      dz2     :     0.026427  d :     0.116336
      dxz     :     0.023564
      dyz     :     0.023994
      dx2y2   :     0.016319
      dxy     :     0.026033
  9 C s       :     2.867947  s :     2.867947
      pz      :     1.037929  p :     3.109427
      px      :     1.022815
      py      :     1.048683
      dz2     :     0.019109  d :     0.076271
      dxz     :     0.014816
      dyz     :     0.015800
      dx2y2   :     0.009572
      dxy     :     0.016974
 10 C s       :     2.836120  s :     2.836120
      pz      :     1.038021  p :     3.138115
      px      :     1.042569
      py      :     1.057524
      dz2     :     0.008825  d :     0.073535
      dxz     :     0.018926
      dyz     :     0.021098
      dx2y2   :     0.020018
      dxy     :     0.004668
 11 O s       :     3.423163  s :     3.423163
      pz      :     1.693187  p :     4.625308
      px      :     1.665414
      py      :     1.266708
      dz2     :     0.003974  d :     0.029908
      dxz     :     0.001897
      dyz     :     0.004777
      dx2y2   :     0.008623
      dxy     :     0.010637
 12 C s       :     2.868517  s :     2.868517
      pz      :     0.807919  p :     2.752304
      px      :     1.026748
      py      :     0.917637
      dz2     :     0.016601  d :     0.267152
      dxz     :     0.035222
      dyz     :     0.029506
      dx2y2   :     0.089391
      dxy     :     0.096431
 13 O s       :     3.582839  s :     3.582839
      pz      :     1.408022  p :     4.616743
      px      :     1.450618
      py      :     1.758104
      dz2     :     0.004063  d :     0.027545
      dxz     :     0.005640
      dyz     :     0.000464
      dx2y2   :     0.010687
      dxy     :     0.006692
 14 C s       :     2.846289  s :     2.846289
      pz      :     1.066469  p :     3.150232
      px      :     1.041405
      py      :     1.042358
      dz2     :     0.012126  d :     0.068054
      dxz     :     0.009288
      dyz     :     0.016457
      dx2y2   :     0.008864
      dxy     :     0.021319
 15 H s       :     0.902268  s :     0.902268
      pz      :     0.033859  p :     0.067606
      px      :     0.016980
      py      :     0.016767
 16 H s       :     0.899009  s :     0.899009
      pz      :     0.013044  p :     0.066359
      px      :     0.012861
      py      :     0.040454
 17 H s       :     0.907169  s :     0.907169
      pz      :     0.026227  p :     0.060711
      px      :     0.022230
      py      :     0.012253
 18 H s       :     0.909087  s :     0.909087
      pz      :     0.031571  p :     0.072939
      px      :     0.019758
      py      :     0.021610
 19 H s       :     0.900547  s :     0.900547
      pz      :     0.035970  p :     0.066323
      px      :     0.016352
      py      :     0.014001
 20 H s       :     0.879922  s :     0.879922
      pz      :     0.010427  p :     0.063515
      px      :     0.013824
      py      :     0.039264
 21 H s       :     0.873134  s :     0.873134
      pz      :     0.019244  p :     0.067715
      px      :     0.014890
      py      :     0.033581
 22 H s       :     0.885316  s :     0.885316
      pz      :     0.023267  p :     0.065999
      px      :     0.015405
      py      :     0.027326
 23 H s       :     0.907779  s :     0.907779
      pz      :     0.033204  p :     0.073516
      px      :     0.026152
      py      :     0.014160
 24 H s       :     0.912636  s :     0.912636
      pz      :     0.011603  p :     0.065128
      px      :     0.026609
      py      :     0.026916
 25 H s       :     0.895808  s :     0.895808
      pz      :     0.023813  p :     0.064061
      px      :     0.013604
      py      :     0.026644
 26 H s       :     0.909593  s :     0.909593
      pz      :     0.018739  p :     0.062650
      px      :     0.011396
      py      :     0.032514
 27 H s       :     0.899755  s :     0.899755
      pz      :     0.014404  p :     0.062958
      px      :     0.036099
      py      :     0.012455
 28 H s       :     0.898297  s :     0.898297
      pz      :     0.015423  p :     0.067071
      px      :     0.035890
      py      :     0.015758
 29 H s       :     0.879152  s :     0.879152
      pz      :     0.026915  p :     0.062955
      px      :     0.015016
      py      :     0.021024
 30 H s       :     0.879705  s :     0.879705
      pz      :     0.032345  p :     0.065784
      px      :     0.013113
      py      :     0.020326


                      *****************************
                      * MAYER POPULATION ANALYSIS *
                      *****************************

  NA   - Mulliken gross atomic population
  ZA   - Total nuclear charge
  QA   - Mulliken gross atomic charge
  VA   - Mayer's total valence
  BVA  - Mayer's bonded valence
  FA   - Mayer's free valence

  ATOM       NA         ZA         QA         VA         BVA        FA
  0 C      5.8995     6.0000     0.1005     3.9314     3.9314     0.0000
  1 C      6.0884     6.0000    -0.0884     3.9470     3.9470     0.0000
  2 C      6.0413     6.0000    -0.0413     4.0172     4.0172    -0.0000
  3 C      5.8198     6.0000     0.1802     3.9336     3.9336     0.0000
  4 C      5.9890     6.0000     0.0110     4.1436     4.1436     0.0000
  5 C      5.7732     6.0000     0.2268     3.7027     3.7027    -0.0000
  6 C      6.0274     6.0000    -0.0274     4.2949     4.2949    -0.0000
  7 O      8.2442     8.0000    -0.2442     2.2300     2.2300    -0.0000
  8 C      6.1431     6.0000    -0.1431     4.1742     4.1742    -0.0000
  9 C      6.0155     6.0000    -0.0155     3.9720     3.9720    -0.0000
 10 C      5.9145     6.0000     0.0855     3.9137     3.9137    -0.0000
 11 O      8.3000     8.0000    -0.3000     2.1288     2.1288    -0.0000
 12 C      5.8568     6.0000     0.1432     4.3099     4.3099     0.0000
 13 O      8.2888     8.0000    -0.2888     2.1650     2.1650     0.0000
 14 C      5.9451     6.0000     0.0549     3.8925     3.8925    -0.0000
 15 H      0.9808     1.0000     0.0192     1.0173     1.0173    -0.0000
 16 H      0.9697     1.0000     0.0303     0.9903     0.9903    -0.0000
 17 H      0.9900     1.0000     0.0100     0.9933     0.9933    -0.0000
 18 H      1.0425     1.0000    -0.0425     0.9942     0.9942    -0.0000
 19 H      0.9917     1.0000     0.0083     0.9869     0.9869    -0.0000
 20 H      0.9531     1.0000     0.0469     0.9853     0.9853    -0.0000
 21 H      0.9634     1.0000     0.0366     1.0047     1.0047     0.0000
 22 H      0.9857     1.0000     0.0143     1.0363     1.0363    -0.0000
 23 H      0.9945     1.0000     0.0055     0.9886     0.9886    -0.0000
 24 H      1.0062     1.0000    -0.0062     0.9794     0.9794     0.0000
 25 H      0.9612     1.0000     0.0388     0.9871     0.9871     0.0000
 26 H      0.9877     1.0000     0.0123     1.0017     1.0017     0.0000
 27 H      0.9718     1.0000     0.0282     0.9912     0.9912    -0.0000
 28 H      0.9759     1.0000     0.0241     0.9972     0.9972    -0.0000
 29 H      0.9392     1.0000     0.0608     1.0081     1.0081    -0.0000
 30 H      0.9399     1.0000     0.0601     0.9979     0.9979     0.0000

  Mayer bond orders larger than 0.100000
B(  0-C ,  1-C ) :   1.0820 B(  0-C , 15-H ) :   0.9467 B(  0-C , 16-H ) :   0.9543 
B(  0-C , 17-H ) :   0.9564 B(  1-C ,  2-C ) :   1.8092 B(  1-C ,  6-C ) :   0.9952 
B(  2-C ,  3-C ) :   1.0133 B(  2-C , 18-H ) :   0.9757 B(  3-C ,  4-C ) :   1.1245 
B(  3-C , 19-H ) :   0.9009 B(  3-C , 20-H ) :   0.8736 B(  4-C ,  5-C ) :   1.0036 
B(  4-C ,  8-C ) :   0.9273 B(  4-C , 11-O ) :   0.8506 B(  5-C ,  6-C ) :   1.0079 
B(  5-C , 21-H ) :   0.8609 B(  5-C , 22-H ) :   0.8848 B(  6-C ,  7-O ) :   2.0791 
B(  8-C ,  9-C ) :   2.0398 B(  8-C , 10-C ) :   1.0673 B(  9-C , 23-H ) :   0.9283 
B(  9-C , 24-H ) :   0.9307 B( 10-C , 25-H ) :   0.9451 B( 10-C , 26-H ) :   0.9474 
B( 10-C , 27-H ) :   0.9511 B( 11-O , 12-C ) :   1.1531 B( 12-C , 13-O ) :   1.9721 
B( 12-C , 14-C ) :   1.0519 B( 14-C , 28-H ) :   0.9472 B( 14-C , 29-H ) :   0.9552 
B( 14-C , 30-H ) :   0.9478 

-------
TIMINGS
-------

Total SCF time: 0 days 0 hours 2 min 45 sec 

Total time                  ....     165.133 sec
Sum of individual times     ....     164.703 sec  ( 99.7%)

Fock matrix formation       ....     153.816 sec  ( 93.1%)
  Split-RI-J                ....       9.490 sec  (  6.2% of F)
  Chain of spheres X        ....     134.047 sec  ( 87.1% of F)
  XC integration            ....      10.263 sec  (  6.7% of F)
    Basis function eval.    ....       3.431 sec  ( 33.4% of XC)
    Density eval.           ....       3.610 sec  ( 35.2% of XC)
    XC-Functional eval.     ....       0.708 sec  (  6.9% of XC)
    XC-Potential eval.      ....       2.075 sec  ( 20.2% of XC)
Diagonalization             ....       0.033 sec  (  0.0%)
Density matrix formation    ....       0.010 sec  (  0.0%)
Population analysis         ....       0.038 sec  (  0.0%)
Initial guess               ....       0.030 sec  (  0.0%)
Orbital Transformation      ....       0.000 sec  (  0.0%)
Orbital Orthonormalization  ....       0.024 sec  (  0.0%)
DIIS solution               ....       0.015 sec  (  0.0%)
SOSCF solution              ....       0.020 sec  (  0.0%)
Grid generation             ....      10.742 sec  (  6.5%)

Maximum memory used throughout the entire SCF-calculation: 116.4 MB

-------------------------   --------------------
FINAL SINGLE POINT ENERGY      -691.590354976674
-------------------------   --------------------


                            ***************************************
                            *     ORCA property calculations      *
                            ***************************************

                                    ---------------------
                                    Active property flags
                                    ---------------------
   (+) Dipole Moment
   (+) Polarizability


------------------------------------------------------------------------------
                       ORCA ELECTRIC PROPERTIES CALCULATION
------------------------------------------------------------------------------

Dipole Moment Calculation                       ... on
Quadrupole Moment Calculation                   ... off
Polarizability Calculation                      ... Analytic (CP-SCF)
GBWName                                         ... 10.gbw
Electron density                                ... 10.scfp
The origin for moment calculation is the CENTER OF MASS  = ( 0.315961,  0.081546 -0.149033)

-------------
DIPOLE MOMENT
-------------
                                X             Y             Z
Electronic contribution:      3.55532       1.18851      -1.26511
Nuclear contribution   :     -5.04397      -0.77068       2.11213
                        -----------------------------------------
Total Dipole Moment    :     -1.48865       0.41783       0.84701
                        -----------------------------------------
Magnitude (a.u.)       :      1.76298
Magnitude (Debye)      :      4.48114



--------------------
Rotational spectrum 
--------------------
 
Rotational constants in cm-1:     0.024422     0.019029     0.013495 
Rotational constants in MHz :   732.152512   570.466655   404.559781 

 Dipole components along the rotational axes: 
x,y,z [a.u.] :     1.676761     0.367198     0.402167 
x,y,z [Debye]:     4.261988     0.933343     1.022226 

 
Transforming and storing MO dipole integrals   ... done

                ... starting polarizability calculation

The origin for moment calculation is the CENTER OF MASS  = ( 0.315961,  0.081546 -0.149033)
Opening the Dipole integral file               ... (10.dmo.tmp) done
Reading Dipole-MO integrals                    ... done
Solving CP-SCF equations                       ... 
------------------------------------------------------------------------------
                           ORCA CP-SCF CALCULATION
------------------------------------------------------------------------------

Input orbitals are from        ... 10.gbw
Input Perturbation             ... 10.cpv.tmp
Wavefunction output            ... 10.cpu.tmp
Perturbation mode              ... Real perturbation (singlet)
Solver                         ... POPLE
Max. number of iterations      ... 64
Convergence tolerance          ... 1.000e-04
Integral handling              ... Direct
DFT GridXC                     ... 1
COSX GridX                     ... 1
COSX IntAccX                   ... 3.067
COSX Algorithm                 ... Auto
Number of perturbations        ... 3
Number of operators            ... 1
Orbital ranges used for CP-SCF:
 Operator 0:  Orbitals   0... 55  to  56...289
Variables per perturbation     ... 13104
DFT calculation                         ... on
XC functional terms                     ... on
Exchange functional (SCF)               ... B88
Exchange functional (CP-SCF)            ... B88
   X-Alpha parameter    XAlpha (SCF)    ...  0.666667
   X-Alpha parameter    XAlpha (CP-SCF) ...  0.666667
   Becke's b parameter  XBeta (SCF)     ...  0.004200
   Becke's b parameter  XBeta (CP-SCF)  ...  0.004200
Correlation functional (SCF)            ... LYP
Correlation functional (CP-SCF)         ... LYP
 LDA part of GGA corr.  LDAOpt (SCF)    ... VWN-5
 LDA part of GGA corr.  LDAOpt (CP-SCF) ... VWN-5
Hybrid DFT                              ... on
   Exchange mixing (SCF)                ...  0.200
   Exchange mixing (CP-SCF)             ...  0.200
   GGA exch. scaling(SCF)               ...  0.720
   GGA exch. scaling (CP-SCF)           ...  0.720
   GGA corr. scaling (SCF)              ...  0.810
   GGA corr. scaling (CP-SCF)           ...  0.810

CP-SCF GRID
-----------

General Integration Accuracy     IntAcc      ... 3.467
Radial Grid Type                 RadialGrid  ... OptM3 with GC (2021)
Angular Grid (max. ang.)         AngularGrid ... 1 (Lebedev-50)
Angular grid pruning method      GridPruning ... 4 (adaptive)
Weight generation scheme         WeightScheme... Becke
Basis function cutoff            BFCut       ... 1.0000e-11
Integration weight cutoff        WCut        ... 1.0000e-14
Angular grids for H and He will be reduced by one unit
Partially contracted basis set               ... off
Rotationally invariant grid construction     ... off

Total number of grid points                  ...    20100
Total number of batches                      ...      328
Average number of points per batch           ...       61
Average number of grid points per atom       ...      648

CP-SCF GRIDX
------------

General Integration Accuracy     IntAcc      ... 3.067
Radial Grid Type                 RadialGrid  ... OptM3 with GC (2021)
Angular Grid (max. ang.)         AngularGrid ... 1 (Lebedev-50)
Angular grid pruning method      GridPruning ... 4 (adaptive)
Weight generation scheme         WeightScheme... Becke
Basis function cutoff            BFCut       ... 1.0000e-11
Integration weight cutoff        WCut        ... 1.0000e-14
Angular grids for H and He will be reduced by one unit
Partially contracted basis set               ... on
Rotationally invariant grid construction     ... off

Total number of grid points                  ...     9419
Total number of batches                      ...      166
Average number of points per batch           ...       56
Average number of grid points per atom       ...      304

Recalculating density on grid  ... done
Calculating the xc-kernel      ... done
Memory available               ... 969.9 MB
Memory needed per perturbation ...  16.5 MB
Perturbations treated per batch... 3
Number of batches              ... 1
     CP-SCF ITERATION   0:   1.4666e+01 (  21.4 sec   0/  3 done)
     CP-SCF ITERATION   1:   1.2836e+00 (  22.2 sec   0/  3 done)
     CP-SCF ITERATION   2:   4.5598e-01 (  21.1 sec   0/  3 done)
     CP-SCF ITERATION   3:   1.1415e-01 (  23.3 sec   0/  3 done)
     CP-SCF ITERATION   4:   3.5347e-02 (  23.7 sec   0/  3 done)
     CP-SCF ITERATION   5:   1.0009e-02 (  19.2 sec   0/  3 done)
     CP-SCF ITERATION   6:   4.5700e-03 (  22.3 sec   0/  3 done)
     CP-SCF ITERATION   7:   1.4729e-03 (  24.9 sec   0/  3 done)
     CP-SCF ITERATION   8:   7.3863e-04 (  22.5 sec   0/  3 done)
     CP-SCF ITERATION   9:   2.1492e-04 (  21.0 sec   0/  3 done)
     CP-SCF ITERATION  10:   9.3912e-05 (  22.5 sec   3/  3 done)
                    *** THE CP-SCF HAS CONVERGED ***
done
Reading CP-SCF coefficients                    ... done
Doing the polarizability tensor                ... done
Cleaning up                                    ... done

-------------------------
THE POLARIZABILITY TENSOR
-------------------------

The raw cartesian tensor (atomic units):
  140.36443      7.16467     -6.51317  
    7.16467    129.05392      1.21923  
   -6.51317      1.21923    123.39344  
diagonalized tensor: 
  119.61972    128.00306    145.18900  

    0.39894     -0.20962     -0.89270  
   -0.40903      0.83062     -0.37783  
    0.82069      0.51588      0.24563  

Isotropic polarizability : 130.93726


Timings for individual modules:

Sum of individual times         ...      411.879 sec (=   6.865 min)
GTO integral calculation        ...        0.798 sec (=   0.013 min)   0.2 %
SCF iterations                  ...      165.201 sec (=   2.753 min)  40.1 %
Solution of CP-SCF eqns.        ...      245.880 sec (=   4.098 min)  59.7 %
                             ****ORCA TERMINATED NORMALLY****
TOTAL RUN TIME: 0 days 0 hours 6 minutes 52 seconds 991 msec
