
                                 *****************
                                 * O   R   C   A *
                                 *****************

                                            #,                                       
                                            ###                                      
                                            ####                                     
                                            #####                                    
                                            ######                                   
                                           ########,                                 
                                     ,,################,,,,,                         
                               ,,#################################,,                 
                          ,,##########################################,,             
                       ,#########################################, ''#####,          
                    ,#############################################,,   '####,        
                  ,##################################################,,,,####,       
                ,###########''''           ''''###############################       
              ,#####''   ,,,,##########,,,,          '''####'''          '####       
            ,##' ,,,,###########################,,,                        '##       
           ' ,,###''''                  '''############,,,                           
         ,,##''                                '''############,,,,        ,,,,,,###''
      ,#''                                            '''#######################'''  
     '                                                          ''''####''''         
             ,#######,   #######,   ,#######,      ##                                
            ,#'     '#,  ##    ##  ,#'     '#,    #''#        ######   ,####,        
            ##       ##  ##   ,#'  ##            #'  '#       #        #'  '#        
            ##       ##  #######   ##           ,######,      #####,   #    #        
            '#,     ,#'  ##    ##  '#,     ,#' ,#      #,         ##   #,  ,#        
             '#######'   ##     ##  '#######'  #'      '#     #####' # '####'        



                  #######################################################
                  #                        -***-                        #
                  #          Department of theory and spectroscopy      #
                  #    Directorship and core code : Frank Neese         #
                  #        Max Planck Institute fuer Kohlenforschung    #
                  #                Kaiser Wilhelm Platz 1               #
                  #                 D-45470 Muelheim/Ruhr               #
                  #                      Germany                        #
                  #                                                     #
                  #                  All rights reserved                #
                  #                        -***-                        #
                  #######################################################


                         Program Version 5.0.3 -  RELEASE  -


 With contributions from (in alphabetic order):
   Daniel Aravena         : Magnetic Suceptibility
   Michael Atanasov       : Ab Initio Ligand Field Theory (pilot matlab implementation)
   Alexander A. Auer      : GIAO ZORA, VPT2 properties, NMR spectrum
   Ute Becker             : Parallelization
   Giovanni Bistoni       : ED, misc. LED, open-shell LED, HFLD
   Martin Brehm           : Molecular dynamics
   Dmytro Bykov           : SCF Hessian
   Vijay G. Chilkuri      : MRCI spin determinant printing, contributions to CSF-ICE
   Dipayan Datta          : RHF DLPNO-CCSD density
   Achintya Kumar Dutta   : EOM-CC, STEOM-CC
   Dmitry Ganyushin       : Spin-Orbit,Spin-Spin,Magnetic field MRCI
   Miquel Garcia          : C-PCM and meta-GGA Hessian, CC/C-PCM, Gaussian charge scheme
   Yang Guo               : DLPNO-NEVPT2, F12-NEVPT2, CIM, IAO-localization
   Andreas Hansen         : Spin unrestricted coupled pair/coupled cluster methods
   Benjamin Helmich-Paris : MC-RPA, TRAH-SCF, COSX integrals
   Lee Huntington         : MR-EOM, pCC
   Robert Izsak           : Overlap fitted RIJCOSX, COSX-SCS-MP3, EOM
   Marcus Kettner         : VPT2
   Christian Kollmar      : KDIIS, OOCD, Brueckner-CCSD(T), CCSD density, CASPT2, CASPT2-K
   Simone Kossmann        : Meta GGA functionals, TD-DFT gradient, OOMP2, MP2 Hessian
   Martin Krupicka        : Initial AUTO-CI
   Lucas Lang             : DCDCAS
   Marvin Lechner         : AUTO-CI (C++ implementation), FIC-MRCC
   Dagmar Lenk            : GEPOL surface, SMD
   Dimitrios Liakos       : Extrapolation schemes; Compound Job, initial MDCI parallelization
   Dimitrios Manganas     : Further ROCIS development; embedding schemes
   Dimitrios Pantazis     : SARC Basis sets
   Anastasios Papadopoulos: AUTO-CI, single reference methods and gradients
   Taras Petrenko         : DFT Hessian,TD-DFT gradient, ASA, ECA, R-Raman, ABS, FL, XAS/XES, NRVS
   Peter Pinski           : DLPNO-MP2, DLPNO-MP2 Gradient
   Christoph Reimann      : Effective Core Potentials
   Marius Retegan         : Local ZFS, SOC
   Christoph Riplinger    : Optimizer, TS searches, QM/MM, DLPNO-CCSD(T), (RO)-DLPNO pert. Triples
   Tobias Risthaus        : Range-separated hybrids, TD-DFT gradient, RPA, STAB
   Michael Roemelt        : Original ROCIS implementation
   Masaaki Saitow         : Open-shell DLPNO-CCSD energy and density
   Barbara Sandhoefer     : DKH picture change effects
   Avijit Sen             : IP-ROCIS
   Kantharuban Sivalingam : CASSCF convergence, NEVPT2, FIC-MRCI
   Bernardo de Souza      : ESD, SOC TD-DFT
   Georgi Stoychev        : AutoAux, RI-MP2 NMR, DLPNO-MP2 response
   Willem Van den Heuvel  : Paramagnetic NMR
   Boris Wezisla          : Elementary symmetry handling
   Frank Wennmohs         : Technical directorship


 We gratefully acknowledge several colleagues who have allowed us to
 interface, adapt or use parts of their codes:
   Stefan Grimme, W. Hujo, H. Kruse, P. Pracht,  : VdW corrections, initial TS optimization,
                  C. Bannwarth, S. Ehlert          DFT functionals, gCP, sTDA/sTD-DF
   Ed Valeev, F. Pavosevic, A. Kumar             : LibInt (2-el integral package), F12 methods
   Garnet Chan, S. Sharma, J. Yang, R. Olivares  : DMRG
   Ulf Ekstrom                                   : XCFun DFT Library
   Mihaly Kallay                                 : mrcc  (arbitrary order and MRCC methods)
   Jiri Pittner, Ondrej Demel                    : Mk-CCSD
   Frank Weinhold                                : gennbo (NPA and NBO analysis)
   Christopher J. Cramer and Donald G. Truhlar   : smd solvation model
   Lars Goerigk                                  : TD-DFT with DH, B97 family of functionals
   V. Asgeirsson, H. Jonsson                     : NEB implementation
   FAccTs GmbH                                   : IRC, NEB, NEB-TS, DLPNO-Multilevel, CI-OPT
                                                   MM, QMMM, 2- and 3-layer-ONIOM, Crystal-QMMM,
                                                   LR-CPCM, SF, NACMEs, symmetry and pop. for TD-DFT,
                                                   nearIR, NL-DFT gradient (VV10), updates on ESD,
                                                   ML-optimized integration grids
   S Lehtola, MJT Oliveira, MAL Marques          : LibXC Library
   Liviu Ungur et al                             : ANISO software


 Your calculation uses the libint2 library for the computation of 2-el integrals
 For citations please refer to: http://libint.valeyev.net

 Your ORCA version has been built with support for libXC version: 5.1.0
 For citations please refer to: https://tddft.org/programs/libxc/

 This ORCA versions uses:
   CBLAS   interface :  Fast vector & matrix operations
   LAPACKE interface :  Fast linear algebra routines
   SCALAPACK package :  Parallel linear algebra routines
   Shared memory     :  Shared parallel matrices
   BLAS/LAPACK       :  OpenBLAS 0.3.15  USE64BITINT DYNAMIC_ARCH NO_AFFINITY Zen SINGLE_THREADED
        Core in use  :  Zen
   Copyright (c) 2011-2014, The OpenBLAS Project




***************************************
The coordinates will be read from file: _97.xyz
***************************************


================================================================================

----- Orbital basis set information -----
Your calculation utilizes the basis: def2-SVP
   F. Weigend and R. Ahlrichs, Phys. Chem. Chem. Phys. 7, 3297 (2005).

----- AuxJ basis set information -----
Your calculation utilizes the auxiliary basis: def2/J
   F. Weigend, Phys. Chem. Chem. Phys. 8, 1057 (2006).

================================================================================
                                        WARNINGS
                       Please study these warnings very carefully!
================================================================================

WARNING: Old DensityContainer found on disk!
         Will remove this file - 
         If you want to keep old densities, please start your calculation with a different basename. 


INFO   : the flag for use of the SHARK integral package has been found!

================================================================================
                                       INPUT FILE
================================================================================
NAME = 97.inp
|  1> ! B3LYP DEF2-SVP TightSCF
|  2> %elprop
|  3> Polar 1
|  4> end
|  5> * xyzfile 0 1 _97.xyz
|  6> 
|  7>                          ****END OF INPUT****
================================================================================

                       ****************************
                       * Single Point Calculation *
                       ****************************

---------------------------------
CARTESIAN COORDINATES (ANGSTROEM)
---------------------------------
  C      4.896762   -0.277464   -0.758534
  C      6.060195   -1.125140   -1.259307
  C      6.933152   -1.190316   -0.074959
  O      8.151183   -1.480042   -0.088086
  O      6.206501   -0.881662    1.070869
  C      4.860135   -0.646506    0.706487
  C      4.200894    0.461896    1.472655
  C      2.806010    0.606322    0.932422
  C      1.785053   -0.157148    1.456656
  C      0.472324   -0.041869    0.983593
  C      0.136943    0.828680   -0.016830
  C      1.194689    1.597706   -0.536772
  C      2.485819    1.488132   -0.075279
  O     -1.085795    1.007037   -0.531833
  C     -2.339441    0.532103   -0.372548
  C     -3.395004    1.591538   -0.091326
  C     -4.681503    0.892461    0.200064
  C     -4.645396   -0.590041    0.037274
  C     -3.822523   -1.062836   -1.110386
  O     -2.847417   -0.151824   -1.507411
  C     -4.692644   -1.307181   -2.290077
  O     -4.525010   -0.767808   -3.391269
  O     -5.775323   -2.199135   -2.171427
  O     -4.304901   -1.244480    1.244935
  O     -5.713561    1.394394   -0.625371
  O     -2.947849    2.373315    0.968413
  O     -0.513912   -0.834195    1.547319
  H      5.202965    0.789656   -0.894584
  H      3.960576   -0.449214   -1.279129
  H      5.676850   -2.109581   -1.555804
  H      6.555827   -0.591499   -2.069795
  H      4.239177   -1.575406    0.833788
  H      4.727300    1.403218    1.211522
  H      4.214315    0.315142    2.558295
  H      2.041010   -0.853184    2.253328
  H      0.999458    2.311626   -1.335756
  H      3.288953    2.101865   -0.492021
  H     -2.364855   -0.236114    0.422586
  H     -3.500168    2.194880   -1.016231
  H     -4.983721    1.156613    1.242596
  H     -5.710528   -0.921390   -0.147746
  H     -3.303938   -2.019421   -0.890423
  H     -6.120823   -2.711285   -2.995256
  H     -4.515118   -0.655593    2.019901
  H     -5.432969    1.409699   -1.575373
  H     -3.558421    3.115892    1.168420
  H     -0.315270   -1.491840    2.288402

----------------------------
CARTESIAN COORDINATES (A.U.)
----------------------------
  NO LB      ZA    FRAG     MASS         X           Y           Z
   0 C     6.0000    0    12.011    9.253539   -0.524331   -1.433422
   1 C     6.0000    0    12.011   11.452109   -2.126206   -2.379745
   2 C     6.0000    0    12.011   13.101759   -2.249371   -0.141652
   3 O     8.0000    0    15.999   15.403504   -2.796874   -0.166458
   4 O     8.0000    0    15.999   11.728587   -1.666100    2.023649
   5 C     6.0000    0    12.011    9.184324   -1.221719    1.335067
   6 C     6.0000    0    12.011    7.938539    0.872857    2.782915
   7 C     6.0000    0    12.011    5.302590    1.145783    1.762022
   8 C     6.0000    0    12.011    3.373261   -0.296967    2.752681
   9 C     6.0000    0    12.011    0.892563   -0.079121    1.858721
  10 C     6.0000    0    12.011    0.258785    1.565978   -0.031804
  11 C     6.0000    0    12.011    2.257635    3.019227   -1.014352
  12 C     6.0000    0    12.011    4.697517    2.812162   -0.142257
  13 O     8.0000    0    15.999   -2.051855    1.903024   -1.005019
  14 C     6.0000    0    12.011   -4.420903    1.005529   -0.704014
  15 C     6.0000    0    12.011   -6.415628    3.007571   -0.172581
  16 C     6.0000    0    12.011   -8.846759    1.686507    0.378066
  17 C     6.0000    0    12.011   -8.778526   -1.115016    0.070438
  18 C     6.0000    0    12.011   -7.223522   -2.008469   -2.098325
  19 O     8.0000    0    15.999   -5.380838   -0.286906   -2.848594
  20 C     6.0000    0    12.011   -8.867812   -2.470214   -4.327618
  21 O     8.0000    0    15.999   -8.551030   -1.450947   -6.408570
  22 O     8.0000    0    15.999  -10.913779   -4.155763   -4.103402
  23 O     8.0000    0    15.999   -8.135084   -2.351726    2.352586
  24 O     8.0000    0    15.999  -10.797066    2.635023   -1.181780
  25 O     8.0000    0    15.999   -5.570627    4.484915    1.830035
  26 O     8.0000    0    15.999   -0.971153   -1.576400    2.924009
  27 H     1.0000    0     1.008    9.832179    1.492234   -1.690519
  28 H     1.0000    0     1.008    7.484404   -0.848891   -2.417203
  29 H     1.0000    0     1.008   10.727692   -3.986530   -2.940043
  30 H     1.0000    0     1.008   12.388718   -1.117771   -3.911346
  31 H     1.0000    0     1.008    8.010884   -2.977086    1.575631
  32 H     1.0000    0     1.008    8.933302    2.651698    2.289445
  33 H     1.0000    0     1.008    7.963901    0.595532    4.834477
  34 H     1.0000    0     1.008    3.856950   -1.612284    4.258173
  35 H     1.0000    0     1.008    1.888702    4.368340   -2.524213
  36 H     1.0000    0     1.008    6.215220    3.971949   -0.929785
  37 H     1.0000    0     1.008   -4.468928   -0.446191    0.798572
  38 H     1.0000    0     1.008   -6.614359    4.147722   -1.920398
  39 H     1.0000    0     1.008   -9.417868    2.185682    2.348166
  40 H     1.0000    0     1.008  -10.791334   -1.741175   -0.279199
  41 H     1.0000    0     1.008   -6.243538   -3.816153   -1.682656
  42 H     1.0000    0     1.008  -11.566679   -5.123586   -5.660214
  43 H     1.0000    0     1.008   -8.532336   -1.238891    3.817060
  44 H     1.0000    0     1.008  -10.266824    2.663945   -2.977024
  45 H     1.0000    0     1.008   -6.724441    5.888183    2.207994
  46 H     1.0000    0     1.008   -0.595774   -2.819169    4.324453

--------------------------------
INTERNAL COORDINATES (ANGSTROEM)
--------------------------------
 C      0   0   0     0.000000000000     0.00000000     0.00000000
 C      1   0   0     1.524107786213     0.00000000     0.00000000
 C      2   1   0     1.472746420783   102.28987481     0.00000000
 O      3   2   1     1.252083459745   125.34016171   199.43746225
 O      3   2   1     1.391477909671   110.05080644    19.43766982
 C      5   3   2     1.414487183475   108.77259343     1.64921893
 C      6   5   3     1.500055696936   114.17840827   217.83297038
 C      7   6   5     1.502801363195   107.17677715   178.11452623
 C      8   7   6     1.378426974310   119.83700084    87.48023934
 C      9   8   7     1.400119736755   121.35489548   179.56310009
 C     10   9   8     1.367911603683   121.96335202     0.00000000
 C     11  10   9     1.407326285037   115.70173813     0.00000000
 C     12  11  10     1.375499519238   122.54846866     0.00000000
 O     11  10   9     1.338703673746   126.16273422   179.99485370
 C     14  11  10     1.350023077172   139.10489282   359.97598280
 C     15  14  11     1.521742941327   114.89889669   124.57367286
 C     16  15  14     1.492881931376   107.92788347   185.92207585
 C     17  16  15     1.491850019122   115.03575053   355.22137763
 C     18  17  16     1.489220790130   114.39056802   322.27399557
 O     19  18  17     1.392265573088   113.51668053    23.30989027
 C     19  18  17     1.486097536889   109.90294327   263.61330020
 O     21  19  18     1.237597758542   123.73544793   123.63582727
 O     21  19  18     1.407783214013   119.18064933   303.63614142
 O     18  17  16     1.415158062079   111.85476091    91.24316550
 O     17  16  15     1.413656037046   110.42011223   232.86416209
 O     16  15  14     1.390744268324   108.00779470   308.46449712
 O     10   9   8     1.385001422760   118.88240064   179.99975220
 H      1   2   3     1.118487806866   106.36107278    84.97046719
 H      1   2   3     1.084878538418   114.39409766   205.60339088
 H      2   1   3     1.097263843620   108.72864430   119.31250037
 H      2   1   3     1.089639662663   108.61622553   243.15338980
 H      6   5   3     1.124566401937   111.04490486    95.37563110
 H      7   6   5     1.109676001457   107.34543062    64.71051670
 H      7   6   5     1.095596216385   113.68817110   302.89778385
 H      9   8   7     1.088423802904   117.28308156   359.56565827
 H     12  11  10     1.089115394261   119.63692644   179.99997075
 H     13  12  11     1.093328089737   121.12570150   180.38381824
 H     15  14  11     1.105911980422   110.52062958   359.97323053
 H     16  15  14     1.109292700276   106.87811265    68.08771209
 H     17  16  15     1.117132476321   107.73151314   118.39676241
 H     18  17  16     1.130721335089   106.63431406   203.53521557
 H     19  18  17     1.110121158171   112.27125921   144.89158862
 H     23  21  19     1.029738847350   120.37989227   207.72431811
 H     24  18  17     0.995766733233   109.86869719    22.87504378
 H     25  17  16     0.990691633907   111.01605948    49.89044154
 H     26  16  15     0.981947843911   112.35735902   176.45631320
 H     27  10   9     1.010524419833   122.06112831     0.00000000

---------------------------
INTERNAL COORDINATES (A.U.)
---------------------------
 C      0   0   0     0.000000000000     0.00000000     0.00000000
 C      1   0   0     2.880146314519     0.00000000     0.00000000
 C      2   1   0     2.783087399993   102.28987481     0.00000000
 O      3   2   1     2.366094835730   125.34016171   199.43746225
 O      3   2   1     2.629512170678   110.05080644    19.43766982
 C      5   3   2     2.672993396710   108.77259343     1.64921893
 C      6   5   3     2.834694452837   114.17840827   217.83297038
 C      7   6   5     2.839883010122   107.17677715   178.11452623
 C      8   7   6     2.604849477055   119.83700084    87.48023934
 C      9   8   7     2.645842857165   121.35489548   179.56310009
 C     10   9   8     2.584978306374   121.96335202     0.00000000
 C     11  10   9     2.659461259789   115.70173813     0.00000000
 C     12  11  10     2.599317388701   122.54846866     0.00000000
 O     11  10   9     2.529783317855   126.16273422   179.99485370
 C     14  11  10     2.551173890329   139.10489282   359.97598280
 C     15  14  11     2.875677405335   114.89889669   124.57367286
 C     16  15  14     2.821138000581   107.92788347   185.92207585
 C     17  16  15     2.819187969025   115.03575053   355.22137763
 C     18  17  16     2.814219446287   114.39056802   322.27399557
 O     19  18  17     2.631000638823   113.51668053    23.30989027
 C     19  18  17     2.808317353015   109.90294327   263.61330020
 O     21  19  18     2.338720827600   123.73544793   123.63582727
 O     21  19  18     2.660324730416   119.18064933   303.63614142
 O     18  17  16     2.674261173540   111.85476091    91.24316550
 O     17  16  15     2.671422757582   110.42011223   232.86416209
 O     16  15  14     2.628125789452   108.00779470   308.46449712
 O     10   9   8     2.617273384108   118.88240064   179.99975220
 H      1   2   3     2.113635639108   106.36107278    84.97046719
 H      1   2   3     2.050123326180   114.39409766   205.60339088
 H      2   1   3     2.073528161095   108.72864430   119.31250037
 H      2   1   3     2.059120547092   108.61622553   243.15338980
 H      6   5   3     2.125122519070   111.04490486    95.37563110
 H      7   6   5     2.096983740138   107.34543062    64.71051670
 H      7   6   5     2.070376802328   113.68817110   302.89778385
 H      9   8   7     2.056822905131   117.28308156   359.56565827
 H     12  11  10     2.058129823392   119.63692644   179.99997075
 H     13  12  11     2.066090664127   121.12570150   180.38381824
 H     15  14  11     2.089870771220   110.52062958   359.97323053
 H     16  15  14     2.096259405879   106.87811265    68.08771209
 H     17  16  15     2.111074435557   107.73151314   118.39676241
 H     18  17  16     2.136753657100   106.63431406   203.53521557
 H     19  18  17     2.097824964415   112.27125921   144.89158862
 H     23  21  19     1.945924410951   120.37989227   207.72431811
 H     24  18  17     1.881726419080   109.86869719    22.87504378
 H     25  17  16     1.872135871251   111.01605948    49.89044154
 H     26  16  15     1.855612502787   112.35735902   176.45631320
 H     27  10   9     1.909614405123   122.06112831     0.00000000

---------------------
BASIS SET INFORMATION
---------------------
There are 3 groups of distinct atoms

 Group   1 Type C   : 7s4p1d contracted to 3s2p1d pattern {511/31/1}
 Group   2 Type O   : 7s4p1d contracted to 3s2p1d pattern {511/31/1}
 Group   3 Type H   : 4s1p contracted to 2s1p pattern {31/1}

Atom   0C    basis set group =>   1
Atom   1C    basis set group =>   1
Atom   2C    basis set group =>   1
Atom   3O    basis set group =>   2
Atom   4O    basis set group =>   2
Atom   5C    basis set group =>   1
Atom   6C    basis set group =>   1
Atom   7C    basis set group =>   1
Atom   8C    basis set group =>   1
Atom   9C    basis set group =>   1
Atom  10C    basis set group =>   1
Atom  11C    basis set group =>   1
Atom  12C    basis set group =>   1
Atom  13O    basis set group =>   2
Atom  14C    basis set group =>   1
Atom  15C    basis set group =>   1
Atom  16C    basis set group =>   1
Atom  17C    basis set group =>   1
Atom  18C    basis set group =>   1
Atom  19O    basis set group =>   2
Atom  20C    basis set group =>   1
Atom  21O    basis set group =>   2
Atom  22O    basis set group =>   2
Atom  23O    basis set group =>   2
Atom  24O    basis set group =>   2
Atom  25O    basis set group =>   2
Atom  26O    basis set group =>   2
Atom  27H    basis set group =>   3
Atom  28H    basis set group =>   3
Atom  29H    basis set group =>   3
Atom  30H    basis set group =>   3
Atom  31H    basis set group =>   3
Atom  32H    basis set group =>   3
Atom  33H    basis set group =>   3
Atom  34H    basis set group =>   3
Atom  35H    basis set group =>   3
Atom  36H    basis set group =>   3
Atom  37H    basis set group =>   3
Atom  38H    basis set group =>   3
Atom  39H    basis set group =>   3
Atom  40H    basis set group =>   3
Atom  41H    basis set group =>   3
Atom  42H    basis set group =>   3
Atom  43H    basis set group =>   3
Atom  44H    basis set group =>   3
Atom  45H    basis set group =>   3
Atom  46H    basis set group =>   3
---------------------------------
AUXILIARY/J BASIS SET INFORMATION
---------------------------------
There are 3 groups of distinct atoms

 Group   1 Type C   : 12s5p4d2f1g contracted to 6s4p3d1f1g pattern {711111/2111/211/2/1}
 Group   2 Type O   : 12s5p4d2f1g contracted to 6s4p3d1f1g pattern {711111/2111/211/2/1}
 Group   3 Type H   : 5s2p1d contracted to 3s1p1d pattern {311/2/1}

Atom   0C    basis set group =>   1
Atom   1C    basis set group =>   1
Atom   2C    basis set group =>   1
Atom   3O    basis set group =>   2
Atom   4O    basis set group =>   2
Atom   5C    basis set group =>   1
Atom   6C    basis set group =>   1
Atom   7C    basis set group =>   1
Atom   8C    basis set group =>   1
Atom   9C    basis set group =>   1
Atom  10C    basis set group =>   1
Atom  11C    basis set group =>   1
Atom  12C    basis set group =>   1
Atom  13O    basis set group =>   2
Atom  14C    basis set group =>   1
Atom  15C    basis set group =>   1
Atom  16C    basis set group =>   1
Atom  17C    basis set group =>   1
Atom  18C    basis set group =>   1
Atom  19O    basis set group =>   2
Atom  20C    basis set group =>   1
Atom  21O    basis set group =>   2
Atom  22O    basis set group =>   2
Atom  23O    basis set group =>   2
Atom  24O    basis set group =>   2
Atom  25O    basis set group =>   2
Atom  26O    basis set group =>   2
Atom  27H    basis set group =>   3
Atom  28H    basis set group =>   3
Atom  29H    basis set group =>   3
Atom  30H    basis set group =>   3
Atom  31H    basis set group =>   3
Atom  32H    basis set group =>   3
Atom  33H    basis set group =>   3
Atom  34H    basis set group =>   3
Atom  35H    basis set group =>   3
Atom  36H    basis set group =>   3
Atom  37H    basis set group =>   3
Atom  38H    basis set group =>   3
Atom  39H    basis set group =>   3
Atom  40H    basis set group =>   3
Atom  41H    basis set group =>   3
Atom  42H    basis set group =>   3
Atom  43H    basis set group =>   3
Atom  44H    basis set group =>   3
Atom  45H    basis set group =>   3
Atom  46H    basis set group =>   3

Checking for AutoStart:
The File: 97.gbw exists
Trying to determine its content:
     ... Fine, the file contains calculation information
     ... Fine, the calculation information was read
     ... Fine, the file contains a basis set
     ... Fine, the basis set was read
     ... Fine, the file contains a geometry
     ... Fine, the geometry was read
     ... Fine, the file contains a set of orbitals
     ... Fine, the orbitals can be read
     => possible old guess file was deleted
     => GBW file was renamed to GES file
     => GES file is set as startup file
     => Guess is set to MORead
     ... now leaving AutoStart

------------------------------------------------------------------------------
                           ORCA GTO INTEGRAL CALCULATION
                           -- RI-GTO INTEGRALS CHOSEN --
------------------------------------------------------------------------------
------------------------------------------------------------------------------
                   ___                                                        
                  /   \      - P O W E R E D   B Y -                         
                 /     \                                                     
                 |  |  |   _    _      __       _____    __    __             
                 |  |  |  | |  | |    /  \     |  _  \  |  |  /  |          
                  \  \/   | |  | |   /    \    | | | |  |  | /  /          
                 / \  \   | |__| |  /  /\  \   | |_| |  |  |/  /          
                |  |  |   |  __  | /  /__\  \  |    /   |      \           
                |  |  |   | |  | | |   __   |  |    \   |  |\   \          
                \     /   | |  | | |  |  |  |  | |\  \  |  | \   \       
                 \___/    |_|  |_| |__|  |__|  |_| \__\ |__|  \__/        
                                                                              
                      - O R C A' S   B I G   F R I E N D -                    
                                      &                                       
                       - I N T E G R A L  F E E D E R -                       
                                                                              
 v1 FN, 2020, v2 2021                                                         
------------------------------------------------------------------------------


Reading SHARK input file 97.SHARKINP.tmp ... ok
----------------------
SHARK INTEGRAL PACKAGE
----------------------

Number of atoms                             ...     47
Number of basis functions                   ...    478
Number of shells                            ...    222
Maximum angular momentum                    ...      2
Integral batch strategy                     ... SHARK/LIBINT Hybrid
RI-J (if used) integral strategy            ... SPLIT-RIJ (Revised 2003 algorithm where possible)
Printlevel                                  ...      1
Contraction scheme used                     ... SEGMENTED contraction
Coulomb Range Separation                    ... NOT USED
Exchange Range Separation                   ... NOT USED
Finite Nucleus Model                        ... NOT USED
Auxiliary Coulomb fitting basis             ... AVAILABLE
   # of basis functions in Aux-J            ...   1543
   # of shells in Aux-J                     ...    505
   Maximum angular momentum in Aux-J        ...      4
Auxiliary J/K fitting basis                 ... NOT available
Auxiliary Correlation fitting basis         ... NOT available
Auxiliary 'external' fitting basis          ... NOT available
Integral threshold                          ...     2.500000e-11
Primitive cut-off                           ...     2.500000e-12
Primitive pair pre-selection threshold      ...     2.500000e-12

Calculating pre-screening integrals         ... done (  0.2 sec) Dimension = 222
Organizing shell pair data                  ... done (  0.5 sec)
Shell pair information
Total number of shell pairs                 ...     24753
Shell pairs after pre-screening             ...     14887
Total number of primitive shell pairs       ...     90511
Primitive shell pairs kept                  ...     34607
          la=0 lb=0:   4586 shell pairs
          la=1 lb=0:   5524 shell pairs
          la=1 lb=1:   1724 shell pairs
          la=2 lb=0:   1782 shell pairs
          la=2 lb=1:   1090 shell pairs
          la=2 lb=2:    181 shell pairs

Calculating one electron integrals          ... done (  0.4 sec)
Calculating RI/J V-Matrix + Cholesky decomp.... done (  0.6 sec)
Calculating Nuclear repulsion               ... done (  0.0 sec) ENN=   2555.621044537736 Eh

SHARK setup successfully completed in   2.5 seconds

Maximum memory used throughout the entire GTOINT-calculation: 93.8 MB
-------------------------------------------------------------------------------
                                 ORCA SCF
-------------------------------------------------------------------------------

------------
SCF SETTINGS
------------
Hamiltonian:
 Density Functional     Method          .... DFT(GTOs)
 Exchange Functional    Exchange        .... B88
   X-Alpha parameter    XAlpha          ....  0.666667
   Becke's b parameter  XBeta           ....  0.004200
 Correlation Functional Correlation     .... LYP
 LDA part of GGA corr.  LDAOpt          .... VWN-5
 Gradients option       PostSCFGGA      .... off
 Hybrid DFT is turned on
   Fraction HF Exchange ScalHFX         ....  0.200000
   Scaling of DF-GGA-X  ScalDFX         ....  0.720000
   Scaling of DF-GGA-C  ScalDFC         ....  0.810000
   Scaling of DF-LDA-C  ScalLDAC        ....  1.000000
   Perturbative correction              ....  0.000000
   Density functional embedding theory  .... OFF
   NL short-range parameter             ....  4.800000
 RI-approximation to the Coulomb term is turned on
   Number of AuxJ basis functions       .... 1543
   RIJ-COSX (HFX calculated with COS-X)).... on


General Settings:
 Integral files         IntName         .... 97
 Hartree-Fock type      HFTyp           .... RHF
 Total Charge           Charge          ....    0
 Multiplicity           Mult            ....    1
 Number of Electrons    NEL             ....  202
 Basis Dimension        Dim             ....  478
 Nuclear Repulsion      ENuc            ....   2555.6210445377 Eh

Convergence Acceleration:
 DIIS                   CNVDIIS         .... on
   Start iteration      DIISMaxIt       ....    12
   Startup error        DIISStart       ....  0.200000
   # of expansion vecs  DIISMaxEq       ....     5
   Bias factor          DIISBfac        ....   1.050
   Max. coefficient     DIISMaxC        ....  10.000
 Trust-Rad. Augm. Hess. CNVTRAH         .... auto
   Auto Start mean grad. ratio tolernc. ....  1.125000
   Auto Start start iteration           ....     1
   Auto Start num. interpolation iter.  ....    10
   Max. Number of Micro iterations      ....    16
   Max. Number of Macro iterations      .... Maxiter - #DIIS iter
   Number of Davidson start vectors     ....     2
   Converg. threshold I  (grad. norm)   ....   1.000e-05
   Converg. threshold II (energy diff.) ....   1.000e-08
   Grad. Scal. Fac. for Micro threshold ....   0.100
   Minimum threshold for Micro iter.    ....   0.010
   NR start threshold (gradient norm)   ....   0.001
   Initial trust radius                 ....   0.400
   Minimum AH scaling param. (alpha)    ....   1.000
   Maximum AH scaling param. (alpha)    .... 1000.000
   Orbital update algorithm             .... Taylor
   White noise on init. David. guess    .... on
   Maximum white noise                  ....   0.010
   Quad. conv. algorithm                .... NR
 SOSCF                  CNVSOSCF        .... on
   Start iteration      SOSCFMaxIt      ....   150
   Startup grad/error   SOSCFStart      ....  0.003300
 Level Shifting         CNVShift        .... on
   Level shift para.    LevelShift      ....    0.2500
   Turn off err/grad.   ShiftErr        ....    0.0010
 Zerner damping         CNVZerner       .... off
 Static damping         CNVDamp         .... on
   Fraction old density DampFac         ....    0.7000
   Max. Damping (<1)    DampMax         ....    0.9800
   Min. Damping (>=0)   DampMin         ....    0.0000
   Turn off err/grad.   DampErr         ....    0.1000
 Fernandez-Rico         CNVRico         .... off

SCF Procedure:
 Maximum # iterations   MaxIter         ....   125
 SCF integral mode      SCFMode         .... Direct
   Integral package                     .... SHARK and LIBINT hybrid scheme
 Reset frequency        DirectResetFreq ....    20
 Integral Threshold     Thresh          ....  2.500e-11 Eh
 Primitive CutOff       TCut            ....  2.500e-12 Eh

Convergence Tolerance:
 Convergence Check Mode ConvCheckMode   .... Total+1el-Energy
 Convergence forced     ConvForced      .... 0
 Energy Change          TolE            ....  1.000e-08 Eh
 1-El. energy change                    ....  1.000e-05 Eh
 Orbital Gradient       TolG            ....  1.000e-05
 Orbital Rotation angle TolX            ....  1.000e-05
 DIIS Error             TolErr          ....  5.000e-07


Diagonalization of the overlap matrix:
Smallest eigenvalue                        ... 1.668e-04
Time for diagonalization                   ...    0.143 sec
Threshold for overlap eigenvalues          ... 1.000e-08
Number of eigenvalues below threshold      ... 0
Time for construction of square roots      ...    0.100 sec
Total time needed                          ...    0.245 sec

---------------------
INITIAL GUESS: MOREAD
---------------------
Guess MOs are being read from file: 97.ges
Input Geometry matches current geometry (good)
Input basis set matches current basis set (good)
MOs were renormalized
MOs were reorthogonalized (Cholesky)
                      ------------------
                      INITIAL GUESS DONE (   0.2 sec)
                      ------------------
-------------------
DFT GRID GENERATION
-------------------

General Integration Accuracy     IntAcc      ... 4.388
Radial Grid Type                 RadialGrid  ... OptM3 with GC (2021)
Angular Grid (max. ang.)         AngularGrid ... 4 (Lebedev-302)
Angular grid pruning method      GridPruning ... 4 (adaptive)
Weight generation scheme         WeightScheme... Becke
Basis function cutoff            BFCut       ... 1.0000e-11
Integration weight cutoff        WCut        ... 1.0000e-14
Angular grids for H and He will be reduced by one unit
Partially contracted basis set               ... off
Rotationally invariant grid construction     ... off

Total number of grid points                  ...   224920
Total number of batches                      ...     3537
Average number of points per batch           ...       63
Average number of grid points per atom       ...     4786
Time for grid setup =   12.983 sec

--------------------
COSX GRID GENERATION
--------------------

GRIDX 1
-------
General Integration Accuracy     IntAcc      ... 3.816
Radial Grid Type                 RadialGrid  ... OptM3 with GC (2021)
Angular Grid (max. ang.)         AngularGrid ... 1 (Lebedev-50)
Angular grid pruning method      GridPruning ... 4 (adaptive)
Weight generation scheme         WeightScheme... Becke
Basis function cutoff            BFCut       ... 1.0000e-11
Integration weight cutoff        WCut        ... 1.0000e-14
Angular grids for H and He will be reduced by one unit
Partially contracted basis set               ... on
Rotationally invariant grid construction     ... off

Total number of grid points                  ...    28535
Total number of batches                      ...      468
Average number of points per batch           ...       60
Average number of grid points per atom       ...      607
UseSFitting                                  ... on

GRIDX 2
-------
General Integration Accuracy     IntAcc      ... 4.020
Radial Grid Type                 RadialGrid  ... OptM3 with GC (2021)
Angular Grid (max. ang.)         AngularGrid ... 2 (Lebedev-110)
Angular grid pruning method      GridPruning ... 4 (adaptive)
Weight generation scheme         WeightScheme... Becke
Basis function cutoff            BFCut       ... 1.0000e-11
Integration weight cutoff        WCut        ... 1.0000e-14
Angular grids for H and He will be reduced by one unit
Partially contracted basis set               ... on
Rotationally invariant grid construction     ... off

Total number of grid points                  ...    62155
Total number of batches                      ...      997
Average number of points per batch           ...       62
Average number of grid points per atom       ...     1322
UseSFitting                                  ... on

GRIDX 3
-------
General Integration Accuracy     IntAcc      ... 4.338
Radial Grid Type                 RadialGrid  ... OptM3 with GC (2021)
Angular Grid (max. ang.)         AngularGrid ... 3 (Lebedev-194)
Angular grid pruning method      GridPruning ... 4 (adaptive)
Weight generation scheme         WeightScheme... Becke
Basis function cutoff            BFCut       ... 1.0000e-11
Integration weight cutoff        WCut        ... 1.0000e-14
Angular grids for H and He will be reduced by one unit
Partially contracted basis set               ... on
Rotationally invariant grid construction     ... off

Total number of grid points                  ...   135744
Total number of batches                      ...     2147
Average number of points per batch           ...       63
Average number of grid points per atom       ...     2888
UseSFitting                                  ... on

Time for X-Grid setup             =   22.824 sec

--------------
SCF ITERATIONS
--------------
ITER       Energy         Delta-E        Max-DP      RMS-DP      [F,P]     Damp
               ***  Starting incremental Fock matrix formation  ***

ORCA finished by error termination in SCF
Calling Command: orca_scf 97.gbw b 
[file orca_tools/qcmsg.cpp, line 465]: 
  .... aborting the run

