
                                 *****************
                                 * O   R   C   A *
                                 *****************

                                            #,                                       
                                            ###                                      
                                            ####                                     
                                            #####                                    
                                            ######                                   
                                           ########,                                 
                                     ,,################,,,,,                         
                               ,,#################################,,                 
                          ,,##########################################,,             
                       ,#########################################, ''#####,          
                    ,#############################################,,   '####,        
                  ,##################################################,,,,####,       
                ,###########''''           ''''###############################       
              ,#####''   ,,,,##########,,,,          '''####'''          '####       
            ,##' ,,,,###########################,,,                        '##       
           ' ,,###''''                  '''############,,,                           
         ,,##''                                '''############,,,,        ,,,,,,###''
      ,#''                                            '''#######################'''  
     '                                                          ''''####''''         
             ,#######,   #######,   ,#######,      ##                                
            ,#'     '#,  ##    ##  ,#'     '#,    #''#        ######   ,####,        
            ##       ##  ##   ,#'  ##            #'  '#       #        #'  '#        
            ##       ##  #######   ##           ,######,      #####,   #    #        
            '#,     ,#'  ##    ##  '#,     ,#' ,#      #,         ##   #,  ,#        
             '#######'   ##     ##  '#######'  #'      '#     #####' # '####'        



                  #######################################################
                  #                        -***-                        #
                  #          Department of theory and spectroscopy      #
                  #    Directorship and core code : Frank Neese         #
                  #        Max Planck Institute fuer Kohlenforschung    #
                  #                Kaiser Wilhelm Platz 1               #
                  #                 D-45470 Muelheim/Ruhr               #
                  #                      Germany                        #
                  #                                                     #
                  #                  All rights reserved                #
                  #                        -***-                        #
                  #######################################################


                         Program Version 5.0.3 -  RELEASE  -


 With contributions from (in alphabetic order):
   Daniel Aravena         : Magnetic Suceptibility
   Michael Atanasov       : Ab Initio Ligand Field Theory (pilot matlab implementation)
   Alexander A. Auer      : GIAO ZORA, VPT2 properties, NMR spectrum
   Ute Becker             : Parallelization
   Giovanni Bistoni       : ED, misc. LED, open-shell LED, HFLD
   Martin Brehm           : Molecular dynamics
   Dmytro Bykov           : SCF Hessian
   Vijay G. Chilkuri      : MRCI spin determinant printing, contributions to CSF-ICE
   Dipayan Datta          : RHF DLPNO-CCSD density
   Achintya Kumar Dutta   : EOM-CC, STEOM-CC
   Dmitry Ganyushin       : Spin-Orbit,Spin-Spin,Magnetic field MRCI
   Miquel Garcia          : C-PCM and meta-GGA Hessian, CC/C-PCM, Gaussian charge scheme
   Yang Guo               : DLPNO-NEVPT2, F12-NEVPT2, CIM, IAO-localization
   Andreas Hansen         : Spin unrestricted coupled pair/coupled cluster methods
   Benjamin Helmich-Paris : MC-RPA, TRAH-SCF, COSX integrals
   Lee Huntington         : MR-EOM, pCC
   Robert Izsak           : Overlap fitted RIJCOSX, COSX-SCS-MP3, EOM
   Marcus Kettner         : VPT2
   Christian Kollmar      : KDIIS, OOCD, Brueckner-CCSD(T), CCSD density, CASPT2, CASPT2-K
   Simone Kossmann        : Meta GGA functionals, TD-DFT gradient, OOMP2, MP2 Hessian
   Martin Krupicka        : Initial AUTO-CI
   Lucas Lang             : DCDCAS
   Marvin Lechner         : AUTO-CI (C++ implementation), FIC-MRCC
   Dagmar Lenk            : GEPOL surface, SMD
   Dimitrios Liakos       : Extrapolation schemes; Compound Job, initial MDCI parallelization
   Dimitrios Manganas     : Further ROCIS development; embedding schemes
   Dimitrios Pantazis     : SARC Basis sets
   Anastasios Papadopoulos: AUTO-CI, single reference methods and gradients
   Taras Petrenko         : DFT Hessian,TD-DFT gradient, ASA, ECA, R-Raman, ABS, FL, XAS/XES, NRVS
   Peter Pinski           : DLPNO-MP2, DLPNO-MP2 Gradient
   Christoph Reimann      : Effective Core Potentials
   Marius Retegan         : Local ZFS, SOC
   Christoph Riplinger    : Optimizer, TS searches, QM/MM, DLPNO-CCSD(T), (RO)-DLPNO pert. Triples
   Tobias Risthaus        : Range-separated hybrids, TD-DFT gradient, RPA, STAB
   Michael Roemelt        : Original ROCIS implementation
   Masaaki Saitow         : Open-shell DLPNO-CCSD energy and density
   Barbara Sandhoefer     : DKH picture change effects
   Avijit Sen             : IP-ROCIS
   Kantharuban Sivalingam : CASSCF convergence, NEVPT2, FIC-MRCI
   Bernardo de Souza      : ESD, SOC TD-DFT
   Georgi Stoychev        : AutoAux, RI-MP2 NMR, DLPNO-MP2 response
   Willem Van den Heuvel  : Paramagnetic NMR
   Boris Wezisla          : Elementary symmetry handling
   Frank Wennmohs         : Technical directorship


 We gratefully acknowledge several colleagues who have allowed us to
 interface, adapt or use parts of their codes:
   Stefan Grimme, W. Hujo, H. Kruse, P. Pracht,  : VdW corrections, initial TS optimization,
                  C. Bannwarth, S. Ehlert          DFT functionals, gCP, sTDA/sTD-DF
   Ed Valeev, F. Pavosevic, A. Kumar             : LibInt (2-el integral package), F12 methods
   Garnet Chan, S. Sharma, J. Yang, R. Olivares  : DMRG
   Ulf Ekstrom                                   : XCFun DFT Library
   Mihaly Kallay                                 : mrcc  (arbitrary order and MRCC methods)
   Jiri Pittner, Ondrej Demel                    : Mk-CCSD
   Frank Weinhold                                : gennbo (NPA and NBO analysis)
   Christopher J. Cramer and Donald G. Truhlar   : smd solvation model
   Lars Goerigk                                  : TD-DFT with DH, B97 family of functionals
   V. Asgeirsson, H. Jonsson                     : NEB implementation
   FAccTs GmbH                                   : IRC, NEB, NEB-TS, DLPNO-Multilevel, CI-OPT
                                                   MM, QMMM, 2- and 3-layer-ONIOM, Crystal-QMMM,
                                                   LR-CPCM, SF, NACMEs, symmetry and pop. for TD-DFT,
                                                   nearIR, NL-DFT gradient (VV10), updates on ESD,
                                                   ML-optimized integration grids
   S Lehtola, MJT Oliveira, MAL Marques          : LibXC Library
   Liviu Ungur et al                             : ANISO software


 Your calculation uses the libint2 library for the computation of 2-el integrals
 For citations please refer to: http://libint.valeyev.net

 Your ORCA version has been built with support for libXC version: 5.1.0
 For citations please refer to: https://tddft.org/programs/libxc/

 This ORCA versions uses:
   CBLAS   interface :  Fast vector & matrix operations
   LAPACKE interface :  Fast linear algebra routines
   SCALAPACK package :  Parallel linear algebra routines
   Shared memory     :  Shared parallel matrices
   BLAS/LAPACK       :  OpenBLAS 0.3.15  USE64BITINT DYNAMIC_ARCH NO_AFFINITY Zen SINGLE_THREADED
        Core in use  :  Zen
   Copyright (c) 2011-2014, The OpenBLAS Project




***************************************
The coordinates will be read from file: _101.xyz
***************************************


================================================================================

----- Orbital basis set information -----
Your calculation utilizes the basis: def2-SVP
   F. Weigend and R. Ahlrichs, Phys. Chem. Chem. Phys. 7, 3297 (2005).

----- AuxJ basis set information -----
Your calculation utilizes the auxiliary basis: def2/J
   F. Weigend, Phys. Chem. Chem. Phys. 8, 1057 (2006).

================================================================================
                                        WARNINGS
                       Please study these warnings very carefully!
================================================================================

WARNING: Old DensityContainer found on disk!
         Will remove this file - 
         If you want to keep old densities, please start your calculation with a different basename. 


INFO   : the flag for use of the SHARK integral package has been found!

================================================================================
                                       INPUT FILE
================================================================================
NAME = 101.inp
|  1> ! B3LYP DEF2-SVP TightSCF
|  2> %elprop
|  3> Polar 1
|  4> end
|  5> * xyzfile 0 1 _101.xyz
|  6> 
|  7>                          ****END OF INPUT****
================================================================================

                       ****************************
                       * Single Point Calculation *
                       ****************************

---------------------------------
CARTESIAN COORDINATES (ANGSTROEM)
---------------------------------
  C     -4.331455    1.333249    0.679247
  C     -4.519245    1.994059   -0.643827
  C     -3.726189    1.255428   -1.718494
  C     -2.252723    1.553802   -1.453222
  C     -1.354769    0.683204   -2.256037
  C      0.040895    0.822978   -1.780345
  O      0.595686    1.925683   -2.156887
  O      0.707478   -0.065556   -1.039592
  C      0.669779   -0.504559    0.272104
  C     -0.650776   -1.275288    0.536211
  C     -0.422801   -2.724600    0.284635
  C     -0.623414   -3.156072   -1.146579
  C     -2.057193   -3.564890   -1.438868
  C     -2.734301   -4.596731   -1.126813
  C     -4.144824   -5.020564   -1.401728
  N     -5.240721   -4.354619   -1.008037
  C     -6.369060   -4.964141   -1.389173
  C     -5.915578   -6.073129   -2.058613
  O     -4.637681   -6.094327   -2.058516
  C     -7.692355   -4.423112   -1.066670
  N     -7.892135   -3.126390   -0.776980
  C     -9.193805   -2.960583   -0.532085
  C     -9.776867   -4.197185   -0.682396
  O     -8.851310   -5.038918   -1.000025
  C     -9.759553   -1.636396   -0.177176
  N     -9.104486   -0.510448   -0.453747
  C     -9.832566    0.520781   -0.031233
  C    -10.978376    0.002472    0.525587
  O    -10.877824   -1.296505    0.408784
  C     -9.337901    1.918106   -0.212784
  C     -7.921124    1.962391    0.337199
  C     -6.946180    1.287082   -0.605292
  C     -5.924437    2.275946   -1.045708
  O     -6.340221    0.187217   -0.056219
  C     -7.982789    1.271182    1.692575
  O     -9.387546    2.354167   -1.514324
  C    -10.156183    3.534954   -1.638784
  O     -1.298825   -3.553651    1.028105
  C     -0.613364   -4.461784    1.819705
  C     -0.968512   -1.094446    1.998632
  C      0.863781    0.563712    1.290486
  C      2.107109    1.323253    1.199846
  C      3.437022    0.711320    1.310579
  C      3.662226   -0.044692    2.610858
  C      4.042820    0.000653    0.165019
  C      5.432406   -0.540247    0.459132
  C      6.437897    0.503982    0.725327
  O      6.113128    1.654013    0.498198
  C      7.771302    0.128386    1.253961
  C      7.609288   -0.322222    2.684341
  C      8.886759    1.060986    1.006234
  C      9.323838    1.304546   -0.385610
  C      8.311787    1.852164   -1.330020
  C      9.948987    0.097325   -1.010261
  C     11.246103    0.053016   -1.253517
  N     11.933048   -1.035643   -1.837355
  C     11.326227   -2.277983   -2.242203
  C     13.344535   -0.917815   -2.048871
  O     14.023616   -1.831027   -2.552431
  O      8.548284    2.281949    1.626016
  C      9.336170    2.588152    2.706850
  O      2.023235    2.388264    2.159341
  C      2.017835    3.630377    1.542614
  O     -2.009926    2.914136   -1.820989
  C     -1.613123    3.867293   -0.893967
  O     -1.471248    3.514732    0.283809
  N     -1.397384    5.181392   -1.358916
  H     -3.391870    1.748705    1.156893
  H     -4.127041    0.240593    0.630919
  H     -5.130197    1.578572    1.379585
  H     -4.008203    3.003238   -0.584519
  H     -3.856304    0.163570   -1.588273
  H     -4.027138    1.523669   -2.728239
  H     -2.029346    1.472832   -0.377395
  H     -1.445160    1.062874   -3.327714
  H     -1.705031   -0.363382   -2.344634
  H      1.436466   -1.280755    0.429226
  H     -1.476494   -0.835001   -0.018820
  H      0.597355   -3.040902    0.579819
  H      0.162004   -3.814195   -1.447911
  H     -0.373029   -2.179793   -1.690525
  H     -2.388573   -2.643851   -2.048973
  H     -2.359619   -5.513092   -0.512990
  H     -6.530206   -6.841796   -2.531052
  H    -10.830455   -4.397892   -0.550342
  H    -11.773880    0.597247    0.960573
  H     -9.934703    2.639065    0.410051
  H     -7.671089    3.046838    0.431584
  H     -7.538225    0.932192   -1.491203
  H     -5.925242    2.311185   -2.176431
  H     -6.223923    3.304429   -0.741640
  H     -6.220292   -0.570623   -0.686482
  H     -9.001688    1.092101    2.043980
  H     -7.490897    1.950185    2.439978
  H     -7.444516    0.297212    1.690083
  H    -11.195505    3.402029   -1.309957
  H    -10.167277    3.883081   -2.679000
  H     -9.703195    4.331895   -1.000188
  H      0.005034   -5.094037    1.134242
  H     -1.327116   -5.107090    2.341338
  H      0.067629   -3.925609    2.504098
  H     -1.896585   -1.708908    2.245702
  H     -0.187583   -1.569654    2.627534
  H     -1.187734   -0.046577    2.283782
  H      0.808596    0.103366    2.311367
  H     -0.019673    1.267962    1.276364
  H      2.109758    1.901287    0.215016
  H      4.158232    1.625066    1.476470
  H      4.738696   -0.083406    2.864965
  H      3.371413   -1.103355    2.403803
  H      3.026784    0.310610    3.426020
  H      3.475840   -0.846786   -0.222792
  H      4.182004    0.717530   -0.706031
  H      5.406471   -1.293301    1.289100
  H      5.751865   -1.103438   -0.444058
  H      8.061638   -0.886189    0.724850
  H      6.999177   -1.262533    2.695578
  H      7.120649    0.440640    3.321926
  H      8.609292   -0.538290    3.152203
  H      9.754223    0.688469    1.641068
  H     10.146186    2.109411   -0.346165
  H      7.568765    1.069623   -1.622744
  H      7.881125    2.824843   -1.066417
  H      8.824672    2.073822   -2.344240
  H      9.345776   -0.748777   -1.266474
  H     11.835173    0.931283   -0.980857
  H     10.238904   -2.206277   -2.344748
  H     11.832711   -2.607398   -3.191078
  H     11.614793   -3.033137   -1.453304
  H     13.877705   -0.006057   -1.769012
  H     10.418696    2.678390    2.444422
  H      9.282104    1.744165    3.430637
  H      8.993668    3.479334    3.247550
  H      1.945774    4.405201    2.336691
  H      1.168260    3.688264    0.838042
  H      2.959025    3.818139    0.974318
  H     -1.406666    5.944481   -0.641317
  H     -1.234478    5.409873   -2.351682

----------------------------
CARTESIAN COORDINATES (A.U.)
----------------------------
  NO LB      ZA    FRAG     MASS         X           Y           Z
   0 C     6.0000    0    12.011   -8.185264    2.519475    1.283591
   1 C     6.0000    0    12.011   -8.540135    3.768225   -1.216657
   2 C     6.0000    0    12.011   -7.041477    2.372415   -3.247483
   3 C     6.0000    0    12.011   -4.257030    2.936260   -2.746192
   4 C     6.0000    0    12.011   -2.560142    1.291068   -4.263292
   5 C     6.0000    0    12.011    0.077280    1.555203   -3.364364
   6 O     8.0000    0    15.999    1.125683    3.639013   -4.075926
   7 O     8.0000    0    15.999    1.336940   -0.123883   -1.964544
   8 C     6.0000    0    12.011    1.265699   -0.953478    0.514202
   9 C     6.0000    0    12.011   -1.229788   -2.409945    1.013292
  10 C     6.0000    0    12.011   -0.798978   -5.148748    0.537882
  11 C     6.0000    0    12.011   -1.178082   -5.964112   -2.166720
  12 C     6.0000    0    12.011   -3.887531   -6.736666   -2.719066
  13 C     6.0000    0    12.011   -5.167080   -8.686563   -2.129368
  14 C     6.0000    0    12.011   -7.832582   -9.487491   -2.648882
  15 N     7.0000    0    14.007   -9.903527   -8.229037   -1.904914
  16 C     6.0000    0    12.011  -12.035779   -9.380867   -2.625157
  17 C     6.0000    0    12.011  -11.178822  -11.476551   -3.890215
  18 O     8.0000    0    15.999   -8.763947  -11.516609   -3.890031
  19 C     6.0000    0    12.011  -14.536444   -8.358470   -2.015714
  20 N     7.0000    0    14.007  -14.913974   -5.908021   -1.468279
  21 C     6.0000    0    12.011  -17.373774   -5.594691   -1.005495
  22 C     6.0000    0    12.011  -18.475601   -7.931530   -1.289542
  23 O     8.0000    0    15.999  -16.726552   -9.522175   -1.889773
  24 C     6.0000    0    12.011  -18.442882   -3.092340   -0.334814
  25 N     7.0000    0    14.007  -17.204985   -0.964607   -0.857458
  26 C     6.0000    0    12.011  -18.580857    0.984133   -0.059022
  27 C     6.0000    0    12.011  -20.746124    0.004671    0.993215
  28 O     8.0000    0    15.999  -20.556108   -2.450039    0.772490
  29 C     6.0000    0    12.011  -17.646076    3.624695   -0.402103
  30 C     6.0000    0    12.011  -14.968755    3.708382    0.637214
  31 C     6.0000    0    12.011  -13.126378    2.432232   -1.143836
  32 C     6.0000    0    12.011  -11.195563    4.300915   -1.976102
  33 O     8.0000    0    15.999  -11.981281    0.353789   -0.106239
  34 C     6.0000    0    12.011  -15.085285    2.402186    3.198503
  35 O     8.0000    0    15.999  -17.739891    4.448731   -2.861658
  36 C     6.0000    0    12.011  -19.192404    6.680095   -3.096853
  37 O     8.0000    0    15.999   -2.454424   -6.715427    1.942837
  38 C     6.0000    0    12.011   -1.159090   -8.431550    3.438744
  39 C     6.0000    0    12.011   -1.830222   -2.068203    3.776867
  40 C     6.0000    0    12.011    1.632310    1.065261    2.438665
  41 C     6.0000    0    12.011    3.981859    2.500586    2.267380
  42 C     6.0000    0    12.011    6.495030    1.344200    2.476635
  43 C     6.0000    0    12.011    6.920604   -0.084456    4.933807
  44 C     6.0000    0    12.011    7.639823    0.001234    0.311841
  45 C     6.0000    0    12.011   10.265760   -1.020919    0.867634
  46 C     6.0000    0    12.011   12.165862    0.952388    1.370669
  47 O     8.0000    0    15.999   11.552138    3.125632    0.941458
  48 C     6.0000    0    12.011   14.685632    0.242614    2.369643
  49 C     6.0000    0    12.011   14.379470   -0.608911    5.072669
  50 C     6.0000    0    12.011   16.793541    2.004973    1.901507
  51 C     6.0000    0    12.011   17.619500    2.465235   -0.728697
  52 C     6.0000    0    12.011   15.707001    3.500083   -2.513374
  53 C     6.0000    0    12.011   18.800861    0.183918   -1.909117
  54 C     6.0000    0    12.011   21.252055    0.100186   -2.368804
  55 N     7.0000    0    14.007   22.550193   -1.957082   -3.472098
  56 C     6.0000    0    12.011   21.403467   -4.304764   -4.237150
  57 C     6.0000    0    12.011   25.217517   -1.734419   -3.871805
  58 O     8.0000    0    15.999   26.500794   -3.460140   -4.823396
  59 O     8.0000    0    15.999   16.153916    4.312259    3.072725
  60 C     6.0000    0    12.011   17.642804    4.890898    5.115205
  61 O     8.0000    0    15.999    3.823360    4.513165    4.080563
  62 C     6.0000    0    12.011    3.813156    6.860418    2.915118
  63 O     8.0000    0    15.999   -3.798210    5.506919   -3.441171
  64 C     6.0000    0    12.011   -3.048361    7.308125   -1.689353
  65 O     8.0000    0    15.999   -2.780256    6.641881    0.536321
  66 N     7.0000    0    14.007   -2.640673    9.791412   -2.567979
  67 H     1.0000    0     1.008   -6.409705    3.304574    2.186211
  68 H     1.0000    0     1.008   -7.798977    0.454655    1.192264
  69 H     1.0000    0     1.008   -9.694667    2.983069    2.607038
  70 H     1.0000    0     1.008   -7.574406    5.675297   -1.104581
  71 H     1.0000    0     1.008   -7.287358    0.309103   -3.001401
  72 H     1.0000    0     1.008   -7.610188    2.879317   -5.155625
  73 H     1.0000    0     1.008   -3.834908    2.783249   -0.713173
  74 H     1.0000    0     1.008   -2.730957    2.008541   -6.288468
  75 H     1.0000    0     1.008   -3.222042   -0.686692   -4.430716
  76 H     1.0000    0     1.008    2.714527   -2.420276    0.811120
  77 H     1.0000    0     1.008   -2.790169   -1.577923   -0.035565
  78 H     1.0000    0     1.008    1.128837   -5.746472    1.095699
  79 H     1.0000    0     1.008    0.306143   -7.207784   -2.736155
  80 H     1.0000    0     1.008   -0.704923   -4.119212   -3.194629
  81 H     1.0000    0     1.008   -4.513749   -4.996154   -3.871998
  82 H     1.0000    0     1.008   -4.459034  -10.418234   -0.969411
  83 H     1.0000    0     1.008  -12.340301  -12.929121   -4.782995
  84 H     1.0000    0     1.008  -20.466594   -8.310811   -1.039996
  85 H     1.0000    0     1.008  -22.249409    1.128633    1.815220
  86 H     1.0000    0     1.008  -18.773868    4.987110    0.774884
  87 H     1.0000    0     1.008  -14.496257    5.757689    0.815576
  88 H     1.0000    0     1.008  -14.245181    1.761588   -2.817965
  89 H     1.0000    0     1.008  -11.197085    4.367507   -4.112859
  90 H     1.0000    0     1.008  -11.761510    6.244466   -1.401496
  91 H     1.0000    0     1.008  -11.754648   -1.078321   -1.297263
  92 H     1.0000    0     1.008  -17.010725    2.063772    3.862562
  93 H     1.0000    0     1.008  -14.155744    3.685316    4.610890
  94 H     1.0000    0     1.008  -14.068096    0.561649    3.193794
  95 H     1.0000    0     1.008  -21.156438    6.428903   -2.475460
  96 H     1.0000    0     1.008  -19.213369    7.337960   -5.062576
  97 H     1.0000    0     1.008  -18.336381    8.186095   -1.890081
  98 H     1.0000    0     1.008    0.009513   -9.626335    2.143407
  99 H     1.0000    0     1.008   -2.507886   -9.651001    4.424488
 100 H     1.0000    0     1.008    0.127800   -7.418326    4.732059
 101 H     1.0000    0     1.008   -3.584026   -3.229368    4.243762
 102 H     1.0000    0     1.008   -0.354480   -2.966216    4.965320
 103 H     1.0000    0     1.008   -2.244492   -0.088018    4.315723
 104 H     1.0000    0     1.008    1.528025    0.195333    4.367851
 105 H     1.0000    0     1.008   -0.037177    2.396101    2.411978
 106 H     1.0000    0     1.008    3.986865    3.592912    0.406321
 107 H     1.0000    0     1.008    7.857920    3.070930    2.790124
 108 H     1.0000    0     1.008    8.954838   -0.157614    5.413999
 109 H     1.0000    0     1.008    6.371047   -2.085039    4.542529
 110 H     1.0000    0     1.008    5.719793    0.586968    6.474240
 111 H     1.0000    0     1.008    6.568386   -1.600194   -0.421016
 112 H     1.0000    0     1.008    7.902842    1.355935   -1.334205
 113 H     1.0000    0     1.008   10.216750   -2.443985    2.436046
 114 H     1.0000    0     1.008   10.869450   -2.085196   -0.839148
 115 H     1.0000    0     1.008   15.234288   -1.674655    1.369768
 116 H     1.0000    0     1.008   13.226528   -2.385842    5.093904
 117 H     1.0000    0     1.008   13.456077    0.832689    6.277530
 118 H     1.0000    0     1.008   16.269204   -1.017221    5.956800
 119 H     1.0000    0     1.008   18.432810    1.301018    3.101169
 120 H     1.0000    0     1.008   19.173513    3.986209   -0.654157
 121 H     1.0000    0     1.008   14.302893    2.021295   -3.066542
 122 H     1.0000    0     1.008   14.893168    5.338180   -2.015236
 123 H     1.0000    0     1.008   16.676213    3.918956   -4.429972
 124 H     1.0000    0     1.008   17.660957   -1.414983   -2.393289
 125 H     1.0000    0     1.008   22.365236    1.759870   -1.853551
 126 H     1.0000    0     1.008   19.348724   -4.169259   -4.430932
 127 H     1.0000    0     1.008   22.360583   -4.927268   -6.030263
 128 H     1.0000    0     1.008   21.948778   -5.731798   -2.746347
 129 H     1.0000    0     1.008   26.225062   -0.011446   -3.342948
 130 H     1.0000    0     1.008   19.688482    5.061424    4.619288
 131 H     1.0000    0     1.008   17.540635    3.295994    6.482964
 132 H     1.0000    0     1.008   16.995569    6.574988    6.136980
 133 H     1.0000    0     1.008    3.676980    8.324623    4.415706
 134 H     1.0000    0     1.008    2.207691    6.969809    1.583670
 135 H     1.0000    0     1.008    5.591747    7.215237    1.841194
 136 H     1.0000    0     1.008   -2.658214   11.233441   -1.211913
 137 H     1.0000    0     1.008   -2.332825   10.223178   -4.444035

--------------------------------
INTERNAL COORDINATES (ANGSTROEM)
--------------------------------
 C      0   0   0     0.000000000000     0.00000000     0.00000000
 C      1   0   0     1.490791652001     0.00000000     0.00000000
 C      2   1   0     1.526244650830   110.17799468     0.00000000
 C      3   2   1     1.526596977272   106.53409241   288.62183769
 C      4   3   2     1.486194532336   112.01257250   168.56771228
 C      5   4   3     1.481113652235   109.91138145   190.84284824
 O      6   5   4     1.290556177960   113.07968135   284.50796859
 O      6   5   4     1.335118186549   125.86328446   104.61628428
 C      8   6   5     1.383723688106   136.34256156   288.22924184
 C      9   8   6     1.551657567543   110.00637409    67.57801693
 C     10   9   8     1.488545719064   108.93602855    92.15962180
 C     11  10   9     1.508239760896   114.74257235   272.80507350
 C     12  11  10     1.519304853374   112.64748120   270.76501958
 C     13  12  11     1.273008018816   132.29131846   286.07999267
 C     14  13  12     1.498261593529   133.24040043   179.95509342
 N     15  14  13     1.341441605555   125.08759078   299.07810514
 C     16  15  14     1.337882886467   112.28545787   180.15108140
 C     17  16  15     1.372461373616   103.20393155     0.00000000
 O     18  17  16     1.278072809828   110.10456687     0.02990019
 C     17  16  15     1.465547754553   122.04858106   179.72857307
 N     20  17  16     1.343622078482   122.54619254    22.27351071
 C     21  20  17     1.334844676797   107.72365639   180.01454185
 C     22  21  20     1.375405103585   106.35905464     0.00000000
 O     23  22  21     1.290758840829   108.01261802     0.00000000
 C     22  21  20     1.483071949959   121.78955170   179.99277448
 N     25  22  21     1.331676834384   121.17002916    19.53281913
 C     26  25  22     1.331184366283   108.66454763   179.99078862
 C     27  26  25     1.375344788764   106.99100886     0.00000000
 O     25  22  21     1.307442175747   131.73163444   199.50787568
 C     27  26  25     1.493375834628   120.33734494   180.01154801
 C     30  27  26     1.520427416631   106.97388586   309.02226467
 C     31  30  27     1.514875352528   111.20276046    74.79402308
 C      2   1   3     1.488466719747   116.26258786   130.32549422
 O     32  31  30     1.370536569098   113.14384784   242.83562279
 C     31  30  27     1.522700415473   105.72508960   312.79706139
 O     30  27  26     1.373542934657   113.59557743    72.54556004
 C     36  30  27     1.414408381175   111.59586391   123.03451911
 O     11  10   9     1.416859643746   112.72661280   153.50110750
 C     38  11  10     1.386071025673   112.16564694   236.50691502
 C     10   9   8     1.507426673474   106.55438819   208.72705112
 C      9   8   6     1.488603910840   114.66296636   302.25861686
 C     41   9   8     1.459788565466   116.22599876   301.96148415
 C     42  41   9     1.468125465124   123.36570076   299.81521759
 C     43  42  41     1.520853860041   113.94245482   302.38211345
 C     43  42  41     1.477953488880   120.88139170    79.12470850
 C     45  43  42     1.519876481220   113.32131858   178.80567462
 C     46  45  43     1.473867746288   113.98753195   295.55935882
 O     47  46  45     1.216401984117   116.99862042   349.82392869
 C     47  46  45     1.482732327562   119.89598863   169.46658909
 C     49  47  46     1.508404140229   108.49170740   289.30018895
 C     49  47  46     1.474908724423   117.39143232   156.20317745
 C     51  49  47     1.479050116182   119.05675818   295.56355534
 C     52  51  49     1.488637950821   117.17303988    59.31967058
 C     52  51  49     1.496122550743   112.55068556   292.60669067
 C     54  52  51     1.320472145285   120.96037136   250.77092639
 N     55  54  52     1.413484581292   125.40367705   179.96532278
 C     56  55  54     1.440674253516   125.13693251   359.07741991
 C     56  55  54     1.432102652399   118.46584894   179.26678051
 O     58  56  55     1.244459655877   122.49431792   179.74191646
 O     51  49  47     1.410477118041   106.98130621    60.91514943
 C     60  51  49     1.372124907492   113.67266107   111.83627333
 O     42  41   9     1.435936604806   107.13750428   173.40527490
 C     62  42  41     1.386804260629   111.55361561   244.54014916
 O      4   3   2     1.429934103745   107.76611646   287.72298904
 C     64   4   3     1.387562854772   122.02047103   116.84246980
 O     65  64   4     1.237571848630   118.22296066   359.88346237
 N     65  64   4     1.410523686622   117.61229241   179.90424120
 H      1   2   3     1.132947201540   108.42648211    85.77307172
 H      1   2   3     1.112662488500   114.82732778   331.14784545
 H      1   2   3     1.090250187405   112.21420844   200.95782445
 H      2   1   3     1.132750466197   106.95429073   248.14758251
 H      3   2   1     1.107267498950   109.47219544    43.52470159
 H      3   2   1     1.087248131618   112.99839724   164.77422508
 H      4   3   2     1.101751859067   110.54878466    43.92536135
 H      5   4   3     1.140531206986   105.34812516    72.15884272
 H      5   4   3     1.107192464050   113.94196391   320.74283287
 H      9   8   6     1.102259728589   109.85169273   179.78932803
 H     10   9   8     1.087990013214   110.98124451   324.44786516
 H     11  10   9     1.108105957657   111.95610495    35.10261188
 H     12  11  10     1.068086275577   110.25366772   136.23611696
 H     12  11  10     1.145290611584   100.23856483    27.79678082
 H     13  12  11     1.153409578140    99.09212548   105.97913940
 H     14  13  12     1.164853106093   126.56452820   359.40236360
 H     18  17  16     1.091702864334   126.44076970   179.97399093
 H     23  22  21     1.080633718014   124.53732941   179.98366662
 H     28  27  26     1.084341613532   124.53365539   179.98840950
 H     30  27  26     1.124223262573   110.90721729   193.86862457
 H     31  30  27     1.116893605165   105.51282783   193.97940438
 H     32  31  30     1.123077243134   106.99980319     0.65833892
 H     33   2   1     1.131272265140   106.04763890   205.38092250
 H     33   2   1     1.113519866957   110.79943255    92.99594599
 H     34  32  31     0.992943039560   114.30544972   140.98244285
 H     35  31  30     1.092570661691   113.48185159   348.59203994
 H     35  31  30     1.123215944546   107.46638863   230.41940215
 H     35  31  30     1.112816963158   112.06860233   111.20075636
 H     37  36  30     1.098174153419   112.76256649   300.12877467
 H     37  36  30     1.096979859260   110.72419120   178.70154331
 H     37  36  30     1.117191987458   108.95793467    59.26591072
 H     39  38  11     1.118936757275   107.07720784   300.05154307
 H     39  38  11     1.094514841301   109.63183088   182.39720140
 H     39  38  11     1.104368088602   109.92433817    57.42806599
 H     40  10   9     1.140143248751   108.49072360   183.88396456
 H     40  10   9     1.109590227025   110.49585773   295.71190283
 H     40  10   9     1.107880069748   113.88337393    64.81653035
 H     41   9   8     1.121232286416   108.77397640   179.62479606
 H     41   9   8     1.129893120388   109.68460719    67.39861903
 H     42  41   9     1.141937148558   108.59630585    64.40031100
 H     43  42  41     1.175838186358   104.02532748   194.43699560
 H     44  43  42     1.106732488971   110.96013083   205.88993786
 H     44  43  42     1.117233781070   105.90500672    92.21545564
 H     44  43  42     1.092938759864   112.95312644   335.23269476
 H     45  43  42     1.090878797503   115.85223780   300.98761487
 H     45  43  42     1.136667463019   109.93187945    61.52062896
 H     46  45  43     1.120986098114   111.17369821    61.89989003
 H     46  45  43     1.111301188365   106.61297750   176.44607800
 H     49  47  46     1.180515088358   106.20535404    37.41879876
 H     50  49  47     1.120957840068   108.57556950    65.38520914
 H     50  49  47     1.107809160275   112.79463134   303.99078193
 H     50  49  47     1.124983658408   110.87139071   184.57943538
 H     51  49  47     1.137662917626   106.01557715   170.08097323
 H     52  51  49     1.151355639824   107.09428584   176.19504109
 H     53  52  51     1.118096350652   111.12585871   286.08080164
 H     53  52  51     1.095929166002   116.17135404    60.12181248
 H     53  52  51     1.157940197328   108.96338478   175.08134915
 H     54  52  51     1.070232314170   120.15629585    70.68584850
 H     55  54  52     1.092107990901   117.18529177   359.93174881
 H     57  56  55     1.094499215984   112.84735631    17.67720982
 H     57  56  55     1.124901795761   107.45261226   142.65007491
 H     57  56  55     1.129552801897   105.82120500   255.74999099
 H     58  56  55     1.092654547121   120.78112436   359.76878676
 H     61  60  51     1.117530264693   112.90883943    59.98195911
 H     61  60  51     1.113150847771   108.36631061   303.95361521
 H     61  60  51     1.097209855555   112.96642434   186.47600834
 H     63  62  42     1.111801826148   107.86802436   179.67963237
 H     63  62  42     1.105237661581   109.47527978    57.99693539
 H     63  62  42     1.115371475500   111.96726381   297.80262158
 H     67  65  64     1.047539642327   116.83987326   160.71220672
 H     67  65  64     1.031661893720   123.20811265   340.63739285

---------------------------
INTERNAL COORDINATES (A.U.)
---------------------------
 C      0   0   0     0.000000000000     0.00000000     0.00000000
 C      1   0   0     2.817187945018     0.00000000     0.00000000
 C      2   1   0     2.884184403430   110.17799468     0.00000000
 C      3   2   1     2.884850203916   106.53409241   288.62183769
 C      4   3   2     2.808500647846   112.01257250   168.56771228
 C      5   4   3     2.798899175935   109.91138145   190.84284824
 O      6   5   4     2.438797736784   113.07968135   284.50796859
 O      6   5   4     2.523007728995   125.86328446   104.61628428
 C      8   6   5     2.614858815540   136.34256156   288.22924184
 C      9   8   6     2.932207856284   110.00637409    67.57801693
 C     10   9   8     2.812943746853   108.93602855    92.15962180
 C     11  10   9     2.850160092385   114.74257235   272.80507350
 C     12  11  10     2.871070086814   112.64748120   270.76501958
 C     13  12  11     2.405636521848   132.29131846   286.07999267
 C     14  13  12     2.831304088742   133.24040043   179.95509342
 N     15  14  13     2.534957259147   125.08759078   299.07810514
 C     16  15  14     2.528232254682   112.28545787   180.15108140
 C     17  16  15     2.593576125520   103.20393155     0.00000000
 O     18  17  16     2.415207589786   110.10456687     0.02990019
 C     17  16  15     2.769483892288   122.04858106   179.72857307
 N     20  17  16     2.539077755821   122.54619254    22.27351071
 C     21  20  17     2.522490870469   107.72365639   180.01454185
 C     22  21  20     2.599138968974   106.35905464     0.00000000
 O     23  22  21     2.439180714105   108.01261802     0.00000000
 C     22  21  20     2.802599822322   121.78955170   179.99277448
 N     25  22  21     2.516504515872   121.17002916    19.53281913
 C     26  25  22     2.515573886033   108.66454763   179.99078862
 C     27  26  25     2.599024990480   106.99100886     0.00000000
 O     25  22  21     2.470707648100   131.73163444   199.50787568
 C     27  26  25     2.822071342463   120.33734494   180.01154801
 C     30  27  26     2.873191423938   106.97388586   309.02226467
 C     31  30  27     2.862699543306   111.20276046    74.79402308
 C      2   1   3     2.812794459778   116.26258786   130.32549422
 O     32  31  30     2.589938772119   113.14384784   242.83562279
 C     31  30  27     2.877486769252   105.72508960   312.79706139
 O     30  27  26     2.595619979684   113.59557743    72.54556004
 C     36  30  27     2.672844481944   111.59586391   123.03451911
 O     11  10   9     2.677476696886   112.72661280   153.50110750
 C     38  11  10     2.619294640685   112.16564694   236.50691502
 C     10   9   8     2.848623579834   106.55438819   208.72705112
 C      9   8   6     2.813053713372   114.66296636   302.25861686
 C     41   9   8     2.758600602160   116.22599876   301.96148415
 C     42  41   9     2.774355059321   123.36570076   299.81521759
 C     43  42  41     2.873997285194   113.94245482   302.38211345
 C     43  42  41     2.792927332657   120.88139170    79.12470850
 C     45  43  42     2.872150306893   113.32131858   178.80567462
 C     46  45  43     2.785206398103   113.98753195   295.55935882
 O     47  46  45     2.298666618739   116.99862042   349.82392869
 C     47  46  45     2.801958029004   119.89598863   169.46658909
 C     49  47  46     2.850470724306   108.49170740   289.30018895
 C     49  47  46     2.787173561690   117.39143232   156.20317745
 C     51  49  47     2.794999657928   119.05675818   295.56355534
 C     52  51  49     2.813118039614   117.17303988    59.31967058
 C     52  51  49     2.827261883689   112.55068556   292.60669067
 C     54  52  51     2.495330722060   120.96037136   250.77092639
 N     55  54  52     2.671098753162   125.40367705   179.96532278
 C     56  55  54     2.722479787337   125.13693251   359.07741991
 C     56  55  54     2.706281808697   118.46584894   179.26678051
 O     58  56  55     2.351687934321   122.49431792   179.74191646
 O     51  49  47     2.665415471261   106.98130621    60.91514943
 C     60  51  49     2.592940296693   113.67266107   111.83627333
 O     42  41   9     2.713526928756   107.13750428   173.40527490
 C     62  42  41     2.620680253943   111.55361561   244.54014916
 O      4   3   2     2.702183845633   107.76611646   287.72298904
 C     64   4   3     2.622113789120   122.02047103   116.84246980
 O     65  64   4     2.338671864962   118.22296066   359.88346237
 N     65  64   4     2.665503473125   117.61229241   179.90424120
 H      1   2   3     2.140959935103   108.42648211    85.77307172
 H      1   2   3     2.102627382753   114.82732778   331.14784545
 H      1   2   3     2.060274271652   112.21420844   200.95782445
 H      2   1   3     2.140588159184   106.95429073   248.14758251
 H      3   2   1     2.092432330007   109.47219544    43.52470159
 H      3   2   1     2.054601208376   112.99839724   164.77422508
 H      4   3   2     2.082009281176   110.54878466    43.92536135
 H      5   4   3     2.155291628395   105.34812516    72.15884272
 H      5   4   3     2.092290534596   113.94196391   320.74283287
 H      9   8   6     2.082969015483   109.85169273   179.78932803
 H     10   9   8     2.056003161416   110.98124451   324.44786516
 H     11  10   9     2.094016787339   111.95610495    35.10261188
 H     12  11  10     2.018390548241   110.25366772   136.23611696
 H     12  11  10     2.164285599645   100.23856483    27.79678082
 H     13  12  11     2.179628222927    99.09212548   105.97913940
 H     14  13  12     2.201253356763   126.56452820   359.40236360
 H     18  17  16     2.063019433208   126.44076970   179.97399093
 H     23  22  21     2.042101778128   124.53732941   179.98366662
 H     28  27  26     2.049108685190   124.53365539   179.98840950
 H     30  27  26     2.124474079646   110.90721729   193.86862457
 H     31  30  27     2.110623034490   105.51282783   193.97940438
 H     32  31  30     2.122308416763   106.99980319     0.65833892
 H     33   2   1     2.137794764015   106.04763890   205.38092250
 H     33   2   1     2.104247593230   110.79943255    92.99594599
 H     34  32  31     1.876390411351   114.30544972   140.98244285
 H     35  31  30     2.064659332552   113.48185159   348.59203994
 H     35  31  30     2.122570524445   107.46638863   230.41940215
 H     35  31  30     2.102919297551   112.06860233   111.20075636
 H     37  36  30     2.075248397313   112.76256649   300.12877467
 H     37  36  30     2.072991508428   110.72419120   178.70154331
 H     37  36  30     2.111186895307   108.95793467    59.26591072
 H     39  38  11     2.114484032428   107.07720784   300.05154307
 H     39  38  11     2.068333299572   109.63183088   182.39720140
 H     39  38  11     2.086953238500   109.92433817    57.42806599
 H     40  10   9     2.154558493579   108.49072360   183.88396456
 H     40  10   9     2.096821649952   110.49585773   295.71190283
 H     40  10   9     2.093589921053   113.88337393    64.81653035
 H     41   9   8     2.118821953837   108.77397640   179.62479606
 H     41   9   8     2.135188558135   109.68460719    67.39861903
 H     42  41   9     2.157948472926   108.59630585    64.40031100
 H     43  42  41     2.222012150023   104.02532748   194.43699560
 H     44  43  42     2.091421307669   110.96013083   205.88993786
 H     44  43  42     2.111265873787   105.90500672    92.21545564
 H     44  43  42     2.065354937290   112.95312644   335.23269476
 H     45  43  42     2.061462172582   115.85223780   300.98761487
 H     45  43  42     2.147990210444   109.93187945    61.52062896
 H     46  45  43     2.118356725369   111.17369821    61.89989003
 H     46  45  43     2.100054898312   106.61297750   176.44607800
 H     49  47  46     2.230850213959   106.20535404    37.41879876
 H     50  49  47     2.118303325401   108.57556950    65.38520914
 H     50  49  47     2.093455921570   112.79463134   303.99078193
 H     50  49  47     2.125911019527   110.87139071   184.57943538
 H     51  49  47     2.149871347031   106.01557715   170.08097323
 H     52  51  49     2.175746842013   107.09428584   176.19504109
 H     53  52  51     2.112895894069   111.12585871   286.08080164
 H     53  52  51     2.071005985921   116.17135404    60.12181248
 H     53  52  51     2.188189852409   108.96338478   175.08134915
 H     54  52  51     2.022445973454   120.15629585    70.68584850
 H     55  54  52     2.063785011469   117.18529177   359.93174881
 H     57  56  55     2.068303772002   112.84735631    17.67720982
 H     57  56  55     2.125756321544   107.45261226   142.65007491
 H     57  56  55     2.134545449388   105.82120500   255.74999099
 H     58  56  55     2.064817853043   120.78112436   359.76878676
 H     61  60  51     2.111826146638   112.90883943    59.98195911
 H     61  60  51     2.103550248030   108.36631061   303.95361521
 H     61  60  51     2.073426138439   112.96642434   186.47600834
 H     63  62  42     2.101000966613   107.86802436   179.67963237
 H     63  62  42     2.088596493284   109.47527978    57.99693539
 H     63  62  42     2.107746626283   111.96726381   297.80262158
 H     67  65  64     1.979563038423   116.83987326   160.71220672
 H     67  65  64     1.949558441933   123.20811265   340.63739285

---------------------
BASIS SET INFORMATION
---------------------
There are 4 groups of distinct atoms

 Group   1 Type C   : 7s4p1d contracted to 3s2p1d pattern {511/31/1}
 Group   2 Type O   : 7s4p1d contracted to 3s2p1d pattern {511/31/1}
 Group   3 Type N   : 7s4p1d contracted to 3s2p1d pattern {511/31/1}
 Group   4 Type H   : 4s1p contracted to 2s1p pattern {31/1}

Atom   0C    basis set group =>   1
Atom   1C    basis set group =>   1
Atom   2C    basis set group =>   1
Atom   3C    basis set group =>   1
Atom   4C    basis set group =>   1
Atom   5C    basis set group =>   1
Atom   6O    basis set group =>   2
Atom   7O    basis set group =>   2
Atom   8C    basis set group =>   1
Atom   9C    basis set group =>   1
Atom  10C    basis set group =>   1
Atom  11C    basis set group =>   1
Atom  12C    basis set group =>   1
Atom  13C    basis set group =>   1
Atom  14C    basis set group =>   1
Atom  15N    basis set group =>   3
Atom  16C    basis set group =>   1
Atom  17C    basis set group =>   1
Atom  18O    basis set group =>   2
Atom  19C    basis set group =>   1
Atom  20N    basis set group =>   3
Atom  21C    basis set group =>   1
Atom  22C    basis set group =>   1
Atom  23O    basis set group =>   2
Atom  24C    basis set group =>   1
Atom  25N    basis set group =>   3
Atom  26C    basis set group =>   1
Atom  27C    basis set group =>   1
Atom  28O    basis set group =>   2
Atom  29C    basis set group =>   1
Atom  30C    basis set group =>   1
Atom  31C    basis set group =>   1
Atom  32C    basis set group =>   1
Atom  33O    basis set group =>   2
Atom  34C    basis set group =>   1
Atom  35O    basis set group =>   2
Atom  36C    basis set group =>   1
Atom  37O    basis set group =>   2
Atom  38C    basis set group =>   1
Atom  39C    basis set group =>   1
Atom  40C    basis set group =>   1
Atom  41C    basis set group =>   1
Atom  42C    basis set group =>   1
Atom  43C    basis set group =>   1
Atom  44C    basis set group =>   1
Atom  45C    basis set group =>   1
Atom  46C    basis set group =>   1
Atom  47O    basis set group =>   2
Atom  48C    basis set group =>   1
Atom  49C    basis set group =>   1
Atom  50C    basis set group =>   1
Atom  51C    basis set group =>   1
Atom  52C    basis set group =>   1
Atom  53C    basis set group =>   1
Atom  54C    basis set group =>   1
Atom  55N    basis set group =>   3
Atom  56C    basis set group =>   1
Atom  57C    basis set group =>   1
Atom  58O    basis set group =>   2
Atom  59O    basis set group =>   2
Atom  60C    basis set group =>   1
Atom  61O    basis set group =>   2
Atom  62C    basis set group =>   1
Atom  63O    basis set group =>   2
Atom  64C    basis set group =>   1
Atom  65O    basis set group =>   2
Atom  66N    basis set group =>   3
Atom  67H    basis set group =>   4
Atom  68H    basis set group =>   4
Atom  69H    basis set group =>   4
Atom  70H    basis set group =>   4
Atom  71H    basis set group =>   4
Atom  72H    basis set group =>   4
Atom  73H    basis set group =>   4
Atom  74H    basis set group =>   4
Atom  75H    basis set group =>   4
Atom  76H    basis set group =>   4
Atom  77H    basis set group =>   4
Atom  78H    basis set group =>   4
Atom  79H    basis set group =>   4
Atom  80H    basis set group =>   4
Atom  81H    basis set group =>   4
Atom  82H    basis set group =>   4
Atom  83H    basis set group =>   4
Atom  84H    basis set group =>   4
Atom  85H    basis set group =>   4
Atom  86H    basis set group =>   4
Atom  87H    basis set group =>   4
Atom  88H    basis set group =>   4
Atom  89H    basis set group =>   4
Atom  90H    basis set group =>   4
Atom  91H    basis set group =>   4
Atom  92H    basis set group =>   4
Atom  93H    basis set group =>   4
Atom  94H    basis set group =>   4
Atom  95H    basis set group =>   4
Atom  96H    basis set group =>   4
Atom  97H    basis set group =>   4
Atom  98H    basis set group =>   4
Atom  99H    basis set group =>   4
Atom 100H    basis set group =>   4
Atom 101H    basis set group =>   4
Atom 102H    basis set group =>   4
Atom 103H    basis set group =>   4
Atom 104H    basis set group =>   4
Atom 105H    basis set group =>   4
Atom 106H    basis set group =>   4
Atom 107H    basis set group =>   4
Atom 108H    basis set group =>   4
Atom 109H    basis set group =>   4
Atom 110H    basis set group =>   4
Atom 111H    basis set group =>   4
Atom 112H    basis set group =>   4
Atom 113H    basis set group =>   4
Atom 114H    basis set group =>   4
Atom 115H    basis set group =>   4
Atom 116H    basis set group =>   4
Atom 117H    basis set group =>   4
Atom 118H    basis set group =>   4
Atom 119H    basis set group =>   4
Atom 120H    basis set group =>   4
Atom 121H    basis set group =>   4
Atom 122H    basis set group =>   4
Atom 123H    basis set group =>   4
Atom 124H    basis set group =>   4
Atom 125H    basis set group =>   4
Atom 126H    basis set group =>   4
Atom 127H    basis set group =>   4
Atom 128H    basis set group =>   4
Atom 129H    basis set group =>   4
Atom 130H    basis set group =>   4
Atom 131H    basis set group =>   4
Atom 132H    basis set group =>   4
Atom 133H    basis set group =>   4
Atom 134H    basis set group =>   4
Atom 135H    basis set group =>   4
Atom 136H    basis set group =>   4
Atom 137H    basis set group =>   4
---------------------------------
AUXILIARY/J BASIS SET INFORMATION
---------------------------------
There are 4 groups of distinct atoms

 Group   1 Type C   : 12s5p4d2f1g contracted to 6s4p3d1f1g pattern {711111/2111/211/2/1}
 Group   2 Type O   : 12s5p4d2f1g contracted to 6s4p3d1f1g pattern {711111/2111/211/2/1}
 Group   3 Type N   : 12s5p4d2f1g contracted to 6s4p3d1f1g pattern {711111/2111/211/2/1}
 Group   4 Type H   : 5s2p1d contracted to 3s1p1d pattern {311/2/1}

Atom   0C    basis set group =>   1
Atom   1C    basis set group =>   1
Atom   2C    basis set group =>   1
Atom   3C    basis set group =>   1
Atom   4C    basis set group =>   1
Atom   5C    basis set group =>   1
Atom   6O    basis set group =>   2
Atom   7O    basis set group =>   2
Atom   8C    basis set group =>   1
Atom   9C    basis set group =>   1
Atom  10C    basis set group =>   1
Atom  11C    basis set group =>   1
Atom  12C    basis set group =>   1
Atom  13C    basis set group =>   1
Atom  14C    basis set group =>   1
Atom  15N    basis set group =>   3
Atom  16C    basis set group =>   1
Atom  17C    basis set group =>   1
Atom  18O    basis set group =>   2
Atom  19C    basis set group =>   1
Atom  20N    basis set group =>   3
Atom  21C    basis set group =>   1
Atom  22C    basis set group =>   1
Atom  23O    basis set group =>   2
Atom  24C    basis set group =>   1
Atom  25N    basis set group =>   3
Atom  26C    basis set group =>   1
Atom  27C    basis set group =>   1
Atom  28O    basis set group =>   2
Atom  29C    basis set group =>   1
Atom  30C    basis set group =>   1
Atom  31C    basis set group =>   1
Atom  32C    basis set group =>   1
Atom  33O    basis set group =>   2
Atom  34C    basis set group =>   1
Atom  35O    basis set group =>   2
Atom  36C    basis set group =>   1
Atom  37O    basis set group =>   2
Atom  38C    basis set group =>   1
Atom  39C    basis set group =>   1
Atom  40C    basis set group =>   1
Atom  41C    basis set group =>   1
Atom  42C    basis set group =>   1
Atom  43C    basis set group =>   1
Atom  44C    basis set group =>   1
Atom  45C    basis set group =>   1
Atom  46C    basis set group =>   1
Atom  47O    basis set group =>   2
Atom  48C    basis set group =>   1
Atom  49C    basis set group =>   1
Atom  50C    basis set group =>   1
Atom  51C    basis set group =>   1
Atom  52C    basis set group =>   1
Atom  53C    basis set group =>   1
Atom  54C    basis set group =>   1
Atom  55N    basis set group =>   3
Atom  56C    basis set group =>   1
Atom  57C    basis set group =>   1
Atom  58O    basis set group =>   2
Atom  59O    basis set group =>   2
Atom  60C    basis set group =>   1
Atom  61O    basis set group =>   2
Atom  62C    basis set group =>   1
Atom  63O    basis set group =>   2
Atom  64C    basis set group =>   1
Atom  65O    basis set group =>   2
Atom  66N    basis set group =>   3
Atom  67H    basis set group =>   4
Atom  68H    basis set group =>   4
Atom  69H    basis set group =>   4
Atom  70H    basis set group =>   4
Atom  71H    basis set group =>   4
Atom  72H    basis set group =>   4
Atom  73H    basis set group =>   4
Atom  74H    basis set group =>   4
Atom  75H    basis set group =>   4
Atom  76H    basis set group =>   4
Atom  77H    basis set group =>   4
Atom  78H    basis set group =>   4
Atom  79H    basis set group =>   4
Atom  80H    basis set group =>   4
Atom  81H    basis set group =>   4
Atom  82H    basis set group =>   4
Atom  83H    basis set group =>   4
Atom  84H    basis set group =>   4
Atom  85H    basis set group =>   4
Atom  86H    basis set group =>   4
Atom  87H    basis set group =>   4
Atom  88H    basis set group =>   4
Atom  89H    basis set group =>   4
Atom  90H    basis set group =>   4
Atom  91H    basis set group =>   4
Atom  92H    basis set group =>   4
Atom  93H    basis set group =>   4
Atom  94H    basis set group =>   4
Atom  95H    basis set group =>   4
Atom  96H    basis set group =>   4
Atom  97H    basis set group =>   4
Atom  98H    basis set group =>   4
Atom  99H    basis set group =>   4
Atom 100H    basis set group =>   4
Atom 101H    basis set group =>   4
Atom 102H    basis set group =>   4
Atom 103H    basis set group =>   4
Atom 104H    basis set group =>   4
Atom 105H    basis set group =>   4
Atom 106H    basis set group =>   4
Atom 107H    basis set group =>   4
Atom 108H    basis set group =>   4
Atom 109H    basis set group =>   4
Atom 110H    basis set group =>   4
Atom 111H    basis set group =>   4
Atom 112H    basis set group =>   4
Atom 113H    basis set group =>   4
Atom 114H    basis set group =>   4
Atom 115H    basis set group =>   4
Atom 116H    basis set group =>   4
Atom 117H    basis set group =>   4
Atom 118H    basis set group =>   4
Atom 119H    basis set group =>   4
Atom 120H    basis set group =>   4
Atom 121H    basis set group =>   4
Atom 122H    basis set group =>   4
Atom 123H    basis set group =>   4
Atom 124H    basis set group =>   4
Atom 125H    basis set group =>   4
Atom 126H    basis set group =>   4
Atom 127H    basis set group =>   4
Atom 128H    basis set group =>   4
Atom 129H    basis set group =>   4
Atom 130H    basis set group =>   4
Atom 131H    basis set group =>   4
Atom 132H    basis set group =>   4
Atom 133H    basis set group =>   4
Atom 134H    basis set group =>   4
Atom 135H    basis set group =>   4
Atom 136H    basis set group =>   4
Atom 137H    basis set group =>   4

Checking for AutoStart:
The File: 101.gbw exists
Trying to determine its content:
     ... Fine, the file contains calculation information
     ... Fine, the calculation information was read
     ... Fine, the file contains a basis set
     ... Fine, the basis set was read
     ... Fine, the file contains a geometry
     ... Fine, the geometry was read
     ... Fine, the file contains a set of orbitals
     ... Fine, the orbitals can be read
     => possible old guess file was deleted
     => GBW file was renamed to GES file
     => GES file is set as startup file
     => Guess is set to MORead
     ... now leaving AutoStart

------------------------------------------------------------------------------
                           ORCA GTO INTEGRAL CALCULATION
                           -- RI-GTO INTEGRALS CHOSEN --
------------------------------------------------------------------------------
------------------------------------------------------------------------------
                   ___                                                        
                  /   \      - P O W E R E D   B Y -                         
                 /     \                                                     
                 |  |  |   _    _      __       _____    __    __             
                 |  |  |  | |  | |    /  \     |  _  \  |  |  /  |          
                  \  \/   | |  | |   /    \    | | | |  |  | /  /          
                 / \  \   | |__| |  /  /\  \   | |_| |  |  |/  /          
                |  |  |   |  __  | /  /__\  \  |    /   |      \           
                |  |  |   | |  | | |   __   |  |    \   |  |\   \          
                \     /   | |  | | |  |  |  |  | |\  \  |  | \   \       
                 \___/    |_|  |_| |__|  |__|  |_| \__\ |__|  \__/        
                                                                              
                      - O R C A' S   B I G   F R I E N D -                    
                                      &                                       
                       - I N T E G R A L  F E E D E R -                       
                                                                              
 v1 FN, 2020, v2 2021                                                         
------------------------------------------------------------------------------


Reading SHARK input file 101.SHARKINP.tmp ... ok
----------------------
SHARK INTEGRAL PACKAGE
----------------------

Number of atoms                             ...    138
Number of basis functions                   ...   1293
Number of shells                            ...    615
Maximum angular momentum                    ...      2
Integral batch strategy                     ... SHARK/LIBINT Hybrid
RI-J (if used) integral strategy            ... SPLIT-RIJ (Revised 2003 algorithm where possible)
Printlevel                                  ...      1
Contraction scheme used                     ... SEGMENTED contraction
Coulomb Range Separation                    ... NOT USED
Exchange Range Separation                   ... NOT USED
Finite Nucleus Model                        ... NOT USED
Auxiliary Coulomb fitting basis             ... AVAILABLE
   # of basis functions in Aux-J            ...   4064
   # of shells in Aux-J                     ...   1360
   Maximum angular momentum in Aux-J        ...      4
Auxiliary J/K fitting basis                 ... NOT available
Auxiliary Correlation fitting basis         ... NOT available
Auxiliary 'external' fitting basis          ... NOT available
Integral threshold                          ...     2.500000e-11
Primitive cut-off                           ...     2.500000e-12
Primitive pair pre-selection threshold      ...     2.500000e-12

Calculating pre-screening integrals         ... done (  1.0 sec) Dimension = 615
Organizing shell pair data                  ... done (  1.2 sec)
Shell pair information
Total number of shell pairs                 ...    189420
Shell pairs after pre-screening             ...     68804
Total number of primitive shell pairs       ...    673304
Primitive shell pairs kept                  ...    143247
          la=0 lb=0:  23479 shell pairs
          la=1 lb=0:  26387 shell pairs
          la=1 lb=1:   7475 shell pairs
          la=2 lb=0:   7153 shell pairs
          la=2 lb=1:   3824 shell pairs
          la=2 lb=2:    486 shell pairs

Calculating one electron integrals          ... done (  2.9 sec)
Calculating RI/J V-Matrix + Cholesky decomp.... done (  3.4 sec)
Calculating Nuclear repulsion               ... done (  0.0 sec) ENN=  10613.717104636547 Eh

SHARK setup successfully completed in  10.7 seconds

Maximum memory used throughout the entire GTOINT-calculation: 342.5 MB
-------------------------------------------------------------------------------
                                 ORCA SCF
-------------------------------------------------------------------------------

------------
SCF SETTINGS
------------
Hamiltonian:
 Density Functional     Method          .... DFT(GTOs)
 Exchange Functional    Exchange        .... B88
   X-Alpha parameter    XAlpha          ....  0.666667
   Becke's b parameter  XBeta           ....  0.004200
 Correlation Functional Correlation     .... LYP
 LDA part of GGA corr.  LDAOpt          .... VWN-5
 Gradients option       PostSCFGGA      .... off
 Hybrid DFT is turned on
   Fraction HF Exchange ScalHFX         ....  0.200000
   Scaling of DF-GGA-X  ScalDFX         ....  0.720000
   Scaling of DF-GGA-C  ScalDFC         ....  0.810000
   Scaling of DF-LDA-C  ScalLDAC        ....  1.000000
   Perturbative correction              ....  0.000000
   Density functional embedding theory  .... OFF
   NL short-range parameter             ....  4.800000
 RI-approximation to the Coulomb term is turned on
   Number of AuxJ basis functions       .... 4064
   RIJ-COSX (HFX calculated with COS-X)).... on


General Settings:
 Integral files         IntName         .... 101
 Hartree-Fock type      HFTyp           .... RHF
 Total Charge           Charge          ....    0
 Multiplicity           Mult            ....    1
 Number of Electrons    NEL             ....  506
 Basis Dimension        Dim             .... 1293
 Nuclear Repulsion      ENuc            ....  10613.7171046365 Eh

Convergence Acceleration:
 DIIS                   CNVDIIS         .... on
   Start iteration      DIISMaxIt       ....    12
   Startup error        DIISStart       ....  0.200000
   # of expansion vecs  DIISMaxEq       ....     5
   Bias factor          DIISBfac        ....   1.050
   Max. coefficient     DIISMaxC        ....  10.000
 Trust-Rad. Augm. Hess. CNVTRAH         .... auto
   Auto Start mean grad. ratio tolernc. ....  1.125000
   Auto Start start iteration           ....     1
   Auto Start num. interpolation iter.  ....    10
   Max. Number of Micro iterations      ....    16
   Max. Number of Macro iterations      .... Maxiter - #DIIS iter
   Number of Davidson start vectors     ....     2
   Converg. threshold I  (grad. norm)   ....   1.000e-05
   Converg. threshold II (energy diff.) ....   1.000e-08
   Grad. Scal. Fac. for Micro threshold ....   0.100
   Minimum threshold for Micro iter.    ....   0.010
   NR start threshold (gradient norm)   ....   0.001
   Initial trust radius                 ....   0.400
   Minimum AH scaling param. (alpha)    ....   1.000
   Maximum AH scaling param. (alpha)    .... 1000.000
   Orbital update algorithm             .... Taylor
   White noise on init. David. guess    .... on
   Maximum white noise                  ....   0.010
   Quad. conv. algorithm                .... NR
 SOSCF                  CNVSOSCF        .... on
   Start iteration      SOSCFMaxIt      ....   150
   Startup grad/error   SOSCFStart      ....  0.003300
 Level Shifting         CNVShift        .... on
   Level shift para.    LevelShift      ....    0.2500
   Turn off err/grad.   ShiftErr        ....    0.0010
 Zerner damping         CNVZerner       .... off
 Static damping         CNVDamp         .... on
   Fraction old density DampFac         ....    0.7000
   Max. Damping (<1)    DampMax         ....    0.9800
   Min. Damping (>=0)   DampMin         ....    0.0000
   Turn off err/grad.   DampErr         ....    0.1000
 Fernandez-Rico         CNVRico         .... off

SCF Procedure:
 Maximum # iterations   MaxIter         ....   125
 SCF integral mode      SCFMode         .... Direct
   Integral package                     .... SHARK and LIBINT hybrid scheme
 Reset frequency        DirectResetFreq ....    20
 Integral Threshold     Thresh          ....  2.500e-11 Eh
 Primitive CutOff       TCut            ....  2.500e-12 Eh

Convergence Tolerance:
 Convergence Check Mode ConvCheckMode   .... Total+1el-Energy
 Convergence forced     ConvForced      .... 0
 Energy Change          TolE            ....  1.000e-08 Eh
 1-El. energy change                    ....  1.000e-05 Eh
 Orbital Gradient       TolG            ....  1.000e-05
 Orbital Rotation angle TolX            ....  1.000e-05
 DIIS Error             TolErr          ....  5.000e-07


Diagonalization of the overlap matrix:
Smallest eigenvalue                        ... 4.418e-04
Time for diagonalization                   ...    1.486 sec
Threshold for overlap eigenvalues          ... 1.000e-08
Number of eigenvalues below threshold      ... 0
Time for construction of square roots      ...    0.589 sec
Total time needed                          ...    2.084 sec

---------------------
INITIAL GUESS: MOREAD
---------------------
Guess MOs are being read from file: 101.ges
Input Geometry matches current geometry (good)
Input basis set matches current basis set (good)
MOs were renormalized
MOs were reorthogonalized (Cholesky)
                      ------------------
                      INITIAL GUESS DONE (   3.2 sec)
                      ------------------
-------------------
DFT GRID GENERATION
-------------------

General Integration Accuracy     IntAcc      ... 4.388
Radial Grid Type                 RadialGrid  ... OptM3 with GC (2021)
Angular Grid (max. ang.)         AngularGrid ... 4 (Lebedev-302)
Angular grid pruning method      GridPruning ... 4 (adaptive)
Weight generation scheme         WeightScheme... Becke
Basis function cutoff            BFCut       ... 1.0000e-11
Integration weight cutoff        WCut        ... 1.0000e-14
Angular grids for H and He will be reduced by one unit
Partially contracted basis set               ... off
Rotationally invariant grid construction     ... off

Total number of grid points                  ...   619699
Total number of batches                      ...     9754
Average number of points per batch           ...       63
Average number of grid points per atom       ...     4491
Time for grid setup =   87.932 sec

--------------------
COSX GRID GENERATION
--------------------

GRIDX 1
-------
General Integration Accuracy     IntAcc      ... 3.816
Radial Grid Type                 RadialGrid  ... OptM3 with GC (2021)
Angular Grid (max. ang.)         AngularGrid ... 1 (Lebedev-50)
Angular grid pruning method      GridPruning ... 4 (adaptive)
Weight generation scheme         WeightScheme... Becke
Basis function cutoff            BFCut       ... 1.0000e-11
Integration weight cutoff        WCut        ... 1.0000e-14
Angular grids for H and He will be reduced by one unit
Partially contracted basis set               ... on
Rotationally invariant grid construction     ... off

Total number of grid points                  ...    78382
Total number of batches                      ...     1296
Average number of points per batch           ...       60
Average number of grid points per atom       ...      568
UseSFitting                                  ... on

GRIDX 2
-------
General Integration Accuracy     IntAcc      ... 4.020
Radial Grid Type                 RadialGrid  ... OptM3 with GC (2021)
Angular Grid (max. ang.)         AngularGrid ... 2 (Lebedev-110)
Angular grid pruning method      GridPruning ... 4 (adaptive)
Weight generation scheme         WeightScheme... Becke
Basis function cutoff            BFCut       ... 1.0000e-11
Integration weight cutoff        WCut        ... 1.0000e-14
Angular grids for H and He will be reduced by one unit
Partially contracted basis set               ... on
Rotationally invariant grid construction     ... off

Total number of grid points                  ...   165357
Total number of batches                      ...     2654
Average number of points per batch           ...       62
Average number of grid points per atom       ...     1198
UseSFitting                                  ... on

GRIDX 3
-------
General Integration Accuracy     IntAcc      ... 4.338
Radial Grid Type                 RadialGrid  ... OptM3 with GC (2021)
Angular Grid (max. ang.)         AngularGrid ... 3 (Lebedev-194)
Angular grid pruning method      GridPruning ... 4 (adaptive)
Weight generation scheme         WeightScheme... Becke
Basis function cutoff            BFCut       ... 1.0000e-11
Integration weight cutoff        WCut        ... 1.0000e-14
Angular grids for H and He will be reduced by one unit
Partially contracted basis set               ... on
Rotationally invariant grid construction     ... off

Total number of grid points                  ...   358567
Total number of batches                      ...     5671
Average number of points per batch           ...       63
Average number of grid points per atom       ...     2598
UseSFitting                                  ... on

Time for X-Grid setup             =  118.231 sec

--------------
SCF ITERATIONS
--------------
ITER       Energy         Delta-E        Max-DP      RMS-DP      [F,P]     Damp
               ***  Starting incremental Fock matrix formation  ***
